ITEM: TIMESTEP
0
ITEM: NUMBER OF ATOMS
4000
ITEM: BOX BOUNDS pp pp pp
-22.481 22.481
-22.481 22.481
-22.481 22.481
ITEM: ATOMS id type fx fy fz 
1 2 0 0 0 
2 2 0 0 0 
3 2 0 0 0 
4 2 0 0 0 
5 2 0 0 0 
6 2 0 0 0 
7 2 0 0 0 
8 1 -1.80748e-09 -4.94466e-09 -4.04852e-09 
9 2 0 0 0 
10 2 0 0 0 
11 2 0 0 0 
12 1 4.09138e-09 8.33081e-09 6.33193e-09 
13 2 0 0 0 
14 2 0 0 0 
15 2 0 0 0 
16 1 -6.04621e-09 -1.12053e-08 -8.30932e-09 
17 2 0 0 0 
18 2 0 0 0 
19 2 0 0 0 
20 1 7.46118e-09 1.30602e-08 1.03641e-08 
21 2 0 0 0 
24 1 -8.39535e-09 -1.35574e-08 -1.20713e-08 
22 2 0 0 0 
23 2 0 0 0 
25 2 0 0 0 
28 1 8.6973e-09 1.2706e-08 1.30123e-08 
26 2 0 0 0 
27 2 0 0 0 
29 2 0 0 0 
32 1 -8.27766e-09 -1.08435e-08 -1.27885e-08 
30 2 0 0 0 
31 2 0 0 0 
33 2 0 0 0 
36 1 6.99998e-09 8.44778e-09 1.10175e-08 
34 2 0 0 0 
35 2 0 0 0 
37 2 0 0 0 
40 1 -4.76653e-09 -5.58056e-09 -7.50492e-09 
38 2 0 0 0 
39 2 0 0 0 
41 2 0 0 0 
42 2 0 0 0 
44 2 0 0 0 
43 1 -4.47826e-09 1.95834e-10 4.03697e-09 
45 2 0 0 0 
46 2 0 0 0 
47 1 8.91449e-09 3.62095e-09 -4.75217e-09 
48 1 3.5542e-09 1.05291e-08 1.12663e-08 
49 2 0 0 0 
50 2 0 0 0 
51 1 -1.29272e-08 -7.12848e-09 3.66677e-09 
52 1 -8.56357e-09 -1.70595e-08 -1.8925e-08 
53 2 0 0 0 
54 2 0 0 0 
55 1 1.5767e-08 1.01536e-08 -1.14095e-09 
56 1 1.31129e-08 2.2415e-08 2.58341e-08 
57 2 0 0 0 
58 2 0 0 0 
59 1 -1.69471e-08 -1.25962e-08 -2.09544e-09 
60 1 -1.67955e-08 -2.58927e-08 -3.19121e-08 
61 2 0 0 0 
64 1 1.93662e-08 2.68103e-08 3.62621e-08 
62 2 0 0 0 
65 2 0 0 0 
63 1 1.62648e-08 1.43353e-08 5.18409e-09 
68 1 -2.07439e-08 -2.51924e-08 -3.81181e-08 
66 2 0 0 0 
69 2 0 0 0 
67 1 -1.41329e-08 -1.51349e-08 -7.58364e-09 
72 1 2.04852e-08 2.16806e-08 3.63846e-08 
70 2 0 0 0 
73 2 0 0 0 
71 1 1.13153e-08 1.4554e-08 8.88273e-09 
76 1 -1.80191e-08 -1.70949e-08 -3.0457e-08 
74 2 0 0 0 
77 2 0 0 0 
75 1 -8.21829e-09 -1.23146e-08 -8.74039e-09 
80 1 1.25218e-08 1.1505e-08 1.98186e-08 
78 2 0 0 0 
79 1 4.85402e-09 8.74915e-09 7.13997e-09 
81 2 0 0 0 
82 2 0 0 0 
84 2 0 0 0 
83 1 8.74297e-09 2.69293e-11 -5.16306e-09 
85 2 0 0 0 
86 2 0 0 0 
87 1 -1.67823e-08 -6.71992e-09 6.16821e-09 
88 1 -5.65349e-09 -1.61515e-08 -1.82125e-08 
89 2 0 0 0 
90 2 0 0 0 
91 1 2.40256e-08 1.30196e-08 -4.14563e-09 
92 1 1.31134e-08 2.58606e-08 3.14448e-08 
93 2 0 0 0 
94 2 0 0 0 
95 1 -2.93773e-08 -1.85108e-08 -3.10286e-10 
96 1 -1.99889e-08 -3.38558e-08 -4.34714e-08 
97 2 0 0 0 
98 2 0 0 0 
99 1 3.18788e-08 2.29266e-08 5.96686e-09 
100 1 2.54911e-08 3.91411e-08 5.34e-08 
101 2 0 0 0 
104 1 -2.95291e-08 -4.09513e-08 -6.00782e-08 
102 2 0 0 0 
105 2 0 0 0 
103 1 -3.13186e-08 -2.61148e-08 -1.11522e-08 
108 1 3.16905e-08 3.8994e-08 6.21166e-08 
106 2 0 0 0 
109 2 0 0 0 
107 1 2.80247e-08 2.76462e-08 1.46724e-08 
112 1 -3.14083e-08 -3.40976e-08 -5.83058e-08 
110 2 0 0 0 
113 2 0 0 0 
111 1 -2.30038e-08 -2.67497e-08 -1.57621e-08 
116 1 2.76503e-08 2.70148e-08 4.80481e-08 
114 2 0 0 0 
117 2 0 0 0 
115 1 1.67753e-08 2.26435e-08 1.40845e-08 
120 1 -1.91614e-08 -1.80965e-08 -3.0711e-08 
118 2 0 0 0 
119 1 -9.48828e-09 -1.578e-08 -9.84055e-09 
121 2 0 0 0 
122 2 0 0 0 
124 2 0 0 0 
123 1 -1.23909e-08 -4.17491e-10 4.99848e-09 
125 2 0 0 0 
126 2 0 0 0 
127 1 2.35535e-08 9.4774e-09 -5.28326e-09 
128 1 7.44163e-09 2.02667e-08 2.36759e-08 
129 2 0 0 0 
130 2 0 0 0 
131 1 -3.3673e-08 -1.80244e-08 2.08958e-09 
132 1 -1.68816e-08 -3.24965e-08 -4.17096e-08 
133 2 0 0 0 
134 2 0 0 0 
135 1 4.12142e-08 2.54702e-08 4.1598e-09 
136 1 2.54754e-08 4.25932e-08 5.81634e-08 
137 2 0 0 0 
138 2 0 0 0 
139 1 -4.52186e-08 -3.14888e-08 -1.16278e-08 
140 1 -3.24744e-08 -4.95225e-08 -7.14535e-08 
141 2 0 0 0 
144 1 3.7559e-08 5.22504e-08 7.96912e-08 
142 2 0 0 0 
145 2 0 0 0 
143 1 4.50543e-08 3.58911e-08 1.82562e-08 
148 1 -4.03875e-08 -5.05094e-08 -8.12954e-08 
146 2 0 0 0 
149 2 0 0 0 
147 1 -4.10587e-08 -3.79477e-08 -2.19908e-08 
152 1 3.98969e-08 4.47053e-08 7.52399e-08 
150 2 0 0 0 
153 2 0 0 0 
151 1 3.40847e-08 3.66155e-08 2.19943e-08 
156 1 -3.50316e-08 -3.56897e-08 -6.10456e-08 
154 2 0 0 0 
157 2 0 0 0 
155 1 -2.49011e-08 -3.08392e-08 -1.80957e-08 
160 1 2.40004e-08 2.36988e-08 3.85859e-08 
158 2 0 0 0 
159 1 1.37914e-08 2.11596e-08 1.12951e-08 
161 2 0 0 0 
162 2 0 0 0 
164 2 0 0 0 
163 1 1.49124e-08 8.51146e-10 -3.70017e-09 
165 2 0 0 0 
166 2 0 0 0 
167 1 -2.81678e-08 -1.14215e-08 2.33441e-09 
168 1 -8.534e-09 -2.23452e-08 -2.71375e-08 
169 2 0 0 0 
170 2 0 0 0 
171 1 4.02392e-08 2.1597e-08 2.21431e-09 
172 1 1.90704e-08 3.61022e-08 4.84582e-08 
173 2 0 0 0 
174 2 0 0 0 
175 1 -4.95072e-08 -3.03877e-08 -9.71421e-09 
176 1 -2.88455e-08 -4.7623e-08 -6.80405e-08 
177 2 0 0 0 
178 2 0 0 0 
179 1 5.47552e-08 3.76354e-08 1.82093e-08 
180 1 3.68841e-08 5.57962e-08 8.35288e-08 
181 2 0 0 0 
184 1 -4.28731e-08 -5.9527e-08 -9.24775e-08 
182 2 0 0 0 
185 2 0 0 0 
183 1 -5.52994e-08 -4.29193e-08 -2.51476e-08 
188 1 4.61041e-08 5.82061e-08 9.32152e-08 
186 2 0 0 0 
189 2 0 0 0 
187 1 5.11468e-08 4.52995e-08 2.82888e-08 
192 1 -4.54714e-08 -5.20126e-08 -8.495e-08 
190 2 0 0 0 
193 2 0 0 0 
191 1 -4.28783e-08 -4.35621e-08 -2.66719e-08 
196 1 3.9621e-08 4.15808e-08 6.80057e-08 
194 2 0 0 0 
197 2 0 0 0 
195 1 3.12926e-08 3.6408e-08 2.0535e-08 
200 1 -2.68787e-08 -2.74512e-08 -4.24279e-08 
198 2 0 0 0 
199 1 -1.70606e-08 -2.46133e-08 -1.16954e-08 
201 2 0 0 0 
203 1 -1.60117e-08 -1.10472e-09 1.62512e-09 
205 2 0 0 0 
207 1 3.02105e-08 1.2221e-08 1.95223e-09 
209 2 0 0 0 
211 1 -4.33825e-08 -2.30866e-08 -7.92044e-09 
213 2 0 0 0 
215 1 5.3791e-08 3.26769e-08 1.59819e-08 
217 2 0 0 0 
219 1 -6.01272e-08 -4.07722e-08 -2.42925e-08 
221 2 0 0 0 
225 2 0 0 0 
223 1 6.13644e-08 4.66652e-08 3.04338e-08 
229 2 0 0 0 
227 1 -5.73059e-08 -4.91967e-08 -3.22098e-08 
233 2 0 0 0 
231 1 4.82634e-08 4.69694e-08 2.88036e-08 
237 2 0 0 0 
235 1 -3.5108e-08 -3.88123e-08 -2.09441e-08 
239 1 1.89244e-08 2.56586e-08 1.09669e-08 
202 2 0 0 0 
204 2 0 0 0 
241 2 0 0 0 
243 1 1.57355e-08 1.20548e-09 8.23133e-10 
206 2 0 0 0 
245 2 0 0 0 
208 1 8.79721e-09 2.2325e-08 2.81945e-08 
247 1 -2.98118e-08 -1.20359e-08 -6.66748e-09 
210 2 0 0 0 
249 2 0 0 0 
212 1 -1.95392e-08 -3.66301e-08 -5.07719e-08 
251 1 4.33598e-08 2.25854e-08 1.36237e-08 
214 2 0 0 0 
253 2 0 0 0 
216 1 2.9712e-08 4.88357e-08 7.16561e-08 
255 1 -5.43459e-08 -3.23087e-08 -2.13728e-08 
218 2 0 0 0 
257 2 0 0 0 
220 1 -3.83085e-08 -5.7878e-08 -8.78219e-08 
259 1 6.14014e-08 4.04797e-08 2.84188e-08 
261 2 0 0 0 
224 1 4.47625e-08 6.24368e-08 9.66177e-08 
222 2 0 0 0 
265 2 0 0 0 
228 1 -4.82368e-08 -6.15841e-08 -9.62132e-08 
263 1 -6.32379e-08 -4.64574e-08 -3.26995e-08 
226 2 0 0 0 
269 2 0 0 0 
232 1 4.74071e-08 5.52031e-08 8.64975e-08 
267 1 5.9229e-08 4.88231e-08 3.26055e-08 
230 2 0 0 0 
273 2 0 0 0 
236 1 -4.08982e-08 -4.40074e-08 -6.81513e-08 
271 1 -4.97602e-08 -4.62269e-08 -2.77415e-08 
234 2 0 0 0 
277 2 0 0 0 
240 1 2.73425e-08 2.8686e-08 4.2134e-08 
275 1 3.5852e-08 3.75768e-08 1.90686e-08 
238 2 0 0 0 
279 1 -1.90218e-08 -2.43505e-08 -9.28963e-09 
242 2 0 0 0 
244 2 0 0 0 
281 2 0 0 0 
283 1 -1.43219e-08 -1.25044e-09 -2.98994e-09 
246 2 0 0 0 
285 2 0 0 0 
248 1 -8.45388e-09 -2.05984e-08 -2.67945e-08 
287 1 2.74987e-08 1.10217e-08 1.03941e-08 
250 2 0 0 0 
289 2 0 0 0 
252 1 1.85574e-08 3.44637e-08 4.83181e-08 
291 1 -4.04866e-08 -2.05727e-08 -1.76071e-08 
254 2 0 0 0 
293 2 0 0 0 
256 1 -2.82505e-08 -4.66577e-08 -6.811e-08 
295 1 5.14012e-08 2.93537e-08 2.42682e-08 
258 2 0 0 0 
297 2 0 0 0 
260 1 3.66193e-08 5.59921e-08 8.3285e-08 
299 1 -5.857e-08 -3.67785e-08 -2.92113e-08 
301 2 0 0 0 
264 1 -4.29539e-08 -6.0946e-08 -9.09135e-08 
262 2 0 0 0 
305 2 0 0 0 
268 1 4.61477e-08 6.03657e-08 8.96354e-08 
303 1 6.05545e-08 4.19738e-08 3.12602e-08 
266 2 0 0 0 
309 2 0 0 0 
272 1 -4.50039e-08 -5.4032e-08 -7.94724e-08 
307 1 -5.66532e-08 -4.37316e-08 -2.93575e-08 
270 2 0 0 0 
313 2 0 0 0 
276 1 3.83321e-08 4.26336e-08 6.18639e-08 
311 1 4.72669e-08 4.08264e-08 2.37162e-08 
274 2 0 0 0 
317 2 0 0 0 
280 1 -2.51435e-08 -2.73766e-08 -3.7875e-08 
315 1 -3.35843e-08 -3.25998e-08 -1.53801e-08 
278 2 0 0 0 
319 1 1.75133e-08 2.06747e-08 6.76825e-09 
282 2 0 0 0 
284 2 0 0 0 
321 2 0 0 0 
323 1 1.20239e-08 1.38095e-09 4.23897e-09 
286 2 0 0 0 
325 2 0 0 0 
288 1 7.62016e-09 1.74813e-08 2.29604e-08 
327 1 -2.33103e-08 -9.3749e-09 -1.17627e-08 
290 2 0 0 0 
329 2 0 0 0 
292 1 -1.65328e-08 -3.00841e-08 -4.10053e-08 
331 1 3.48466e-08 1.70383e-08 1.81131e-08 
294 2 0 0 0 
333 2 0 0 0 
296 1 2.49023e-08 4.13582e-08 5.7522e-08 
335 1 -4.45784e-08 -2.39831e-08 -2.30044e-08 
298 2 0 0 0 
337 2 0 0 0 
300 1 -3.20971e-08 -5.01249e-08 -6.98701e-08 
339 1 5.10443e-08 2.96366e-08 2.58197e-08 
341 2 0 0 0 
304 1 3.72173e-08 5.48043e-08 7.57548e-08 
302 2 0 0 0 
345 2 0 0 0 
308 1 -3.94862e-08 -5.42461e-08 -7.38958e-08 
343 1 -5.27296e-08 -3.32513e-08 -2.58289e-08 
306 2 0 0 0 
349 2 0 0 0 
312 1 3.78487e-08 4.81615e-08 6.47512e-08 
347 1 4.90514e-08 3.39751e-08 2.29809e-08 
310 2 0 0 0 
353 2 0 0 0 
316 1 -3.16467e-08 -3.7485e-08 -4.98078e-08 
351 1 -4.05167e-08 -3.10206e-08 -1.75226e-08 
314 2 0 0 0 
357 2 0 0 0 
320 1 2.04241e-08 2.35742e-08 3.02673e-08 
355 1 2.83261e-08 2.42449e-08 1.05599e-08 
318 2 0 0 0 
359 1 -1.45561e-08 -1.49993e-08 -3.91228e-09 
322 2 0 0 0 
324 2 0 0 0 
361 2 0 0 0 
363 1 -8.6455e-09 -1.43223e-09 -3.87422e-09 
326 2 0 0 0 
365 2 0 0 0 
328 1 -6.53027e-09 -1.34491e-08 -1.69635e-08 
367 1 1.67647e-08 6.68726e-09 9.1977e-09 
330 2 0 0 0 
369 2 0 0 0 
332 1 1.35001e-08 2.32962e-08 2.94681e-08 
371 1 -2.51924e-08 -1.15006e-08 -1.33507e-08 
334 2 0 0 0 
373 2 0 0 0 
336 1 -1.97233e-08 -3.22678e-08 -4.06224e-08 
375 1 3.23194e-08 1.55863e-08 1.62471e-08 
338 2 0 0 0 
377 2 0 0 0 
340 1 2.46614e-08 3.9257e-08 4.87741e-08 
379 1 -3.69316e-08 -1.86218e-08 -1.73486e-08 
381 2 0 0 0 
344 1 -2.78492e-08 -4.29438e-08 -5.23755e-08 
342 2 0 0 0 
385 2 0 0 0 
348 1 2.8594e-08 4.22582e-08 5.0526e-08 
383 1 3.79798e-08 2.01902e-08 1.66154e-08 
346 2 0 0 0 
389 2 0 0 0 
352 1 -2.65759e-08 -3.71768e-08 -4.37862e-08 
387 1 -3.50702e-08 -1.99436e-08 -1.407e-08 
350 2 0 0 0 
393 2 0 0 0 
356 1 2.15646e-08 2.8569e-08 3.33308e-08 
391 1 2.86966e-08 1.76248e-08 1.02884e-08 
354 2 0 0 0 
397 2 0 0 0 
360 1 -1.34624e-08 -1.7728e-08 -2.0156e-08 
395 1 -1.98568e-08 -1.33177e-08 -5.72868e-09 
358 2 0 0 0 
399 1 1.0093e-08 7.90093e-09 1.34356e-09 
362 2 0 0 0 
364 2 0 0 0 
366 2 0 0 0 
368 1 5.08876e-09 7.82555e-09 9.65575e-09 
370 2 0 0 0 
372 1 -9.31341e-09 -1.33606e-08 -1.55024e-08 
374 2 0 0 0 
376 1 1.27639e-08 1.84199e-08 2.04317e-08 
378 2 0 0 0 
380 1 -1.50362e-08 -2.22866e-08 -2.39513e-08 
384 1 1.59344e-08 2.41925e-08 2.51829e-08 
382 2 0 0 0 
388 1 -1.53282e-08 -2.35406e-08 -2.39094e-08 
386 2 0 0 0 
392 1 1.3221e-08 2.04971e-08 2.0348e-08 
390 2 0 0 0 
396 1 -9.88106e-09 -1.55663e-08 -1.51646e-08 
394 2 0 0 0 
400 1 5.53553e-09 9.61119e-09 8.93271e-09 
398 2 0 0 0 
401 2 0 0 0 
403 2 0 0 0 
404 2 0 0 0 
402 1 -3.41998e-09 3.78696e-09 1.02629e-09 
405 2 0 0 0 
407 2 0 0 0 
406 1 5.48038e-09 -4.40691e-09 2.18519e-09 
408 1 2.07627e-09 1.28318e-08 7.88612e-09 
409 2 0 0 0 
411 2 0 0 0 
410 1 -7.60893e-09 3.15179e-09 -5.86758e-09 
412 1 -6.51508e-09 -2.31828e-08 -1.21219e-08 
413 2 0 0 0 
415 2 0 0 0 
414 1 9.9541e-09 -4.91828e-10 9.5823e-09 
416 1 1.15799e-08 3.21158e-08 1.64386e-08 
417 2 0 0 0 
419 2 0 0 0 
418 1 -1.23745e-08 -2.83423e-09 -1.29932e-08 
420 1 -1.6417e-08 -3.80854e-08 -2.05978e-08 
421 2 0 0 0 
424 1 2.02344e-08 3.99143e-08 2.41223e-08 
423 2 0 0 0 
425 2 0 0 0 
422 1 1.44724e-08 5.94287e-09 1.53912e-08 
428 1 -2.23202e-08 -3.76994e-08 -2.58376e-08 
427 2 0 0 0 
429 2 0 0 0 
426 1 -1.53758e-08 -8.11277e-09 -1.6283e-08 
432 1 2.18526e-08 3.22079e-08 2.51503e-08 
431 2 0 0 0 
433 2 0 0 0 
430 1 1.45237e-08 9.07771e-09 1.51823e-08 
436 1 -1.8593e-08 -2.48167e-08 -2.14603e-08 
435 2 0 0 0 
437 2 0 0 0 
434 1 -1.1481e-08 -8.69841e-09 -1.21985e-08 
440 1 1.23357e-08 1.57329e-08 1.44757e-08 
439 2 0 0 0 
438 1 6.14443e-09 6.89089e-09 8.12985e-09 
441 2 0 0 0 
444 2 0 0 0 
442 1 1.03322e-08 -7.52127e-09 1.23145e-09 
443 1 1.23772e-08 1.15131e-09 -6.41529e-09 
445 1 -6.22566e-09 9.76819e-09 1.27198e-08 
446 1 -1.91861e-08 9.94157e-09 -9.31147e-09 
447 1 -2.62467e-08 -8.85639e-09 7.83678e-09 
448 1 -9.13965e-09 -2.66971e-08 -2.09161e-08 
449 1 7.4201e-09 -1.63635e-08 -2.28739e-08 
450 1 2.83984e-08 -7.98272e-09 1.76354e-08 
451 1 3.97612e-08 1.71266e-08 -5.98551e-09 
452 1 2.03234e-08 4.70316e-08 3.46833e-08 
453 1 -5.52426e-09 2.27028e-08 3.15826e-08 
454 1 -3.72393e-08 2.51268e-09 -2.54878e-08 
455 1 -5.01063e-08 -2.51217e-08 1.44555e-09 
456 1 -3.16514e-08 -6.45726e-08 -4.82206e-08 
457 1 1.74167e-09 -2.87072e-08 -3.72722e-08 
458 1 4.48083e-08 4.74031e-09 3.20752e-08 
459 1 5.51512e-08 3.19968e-08 4.39147e-09 
460 1 4.17383e-08 7.59761e-08 6.0456e-08 
461 1 2.74977e-09 3.34383e-08 3.8849e-08 
464 1 -4.9519e-08 -7.92202e-08 -6.96958e-08 
462 1 -4.97968e-08 -1.16566e-08 -3.6671e-08 
463 1 -5.43878e-08 -3.68775e-08 -1.02182e-08 
465 1 -6.74983e-09 -3.60219e-08 -3.65596e-08 
468 1 5.33803e-08 7.43632e-08 7.36566e-08 
466 1 5.06976e-08 1.66687e-08 3.81029e-08 
467 1 4.86258e-08 3.84191e-08 1.48444e-08 
469 1 9.55595e-09 3.51332e-08 3.13844e-08 
472 1 -5.19464e-08 -6.35701e-08 -7.03924e-08 
470 1 -4.61067e-08 -1.8744e-08 -3.53162e-08 
471 1 -3.9636e-08 -3.5588e-08 -1.74497e-08 
473 1 -1.06396e-08 -3.01121e-08 -2.45959e-08 
476 1 4.37914e-08 4.89875e-08 5.87934e-08 
474 1 3.50476e-08 1.74761e-08 2.76667e-08 
475 1 2.83838e-08 2.78285e-08 1.71433e-08 
477 1 8.78065e-09 2.02041e-08 1.62196e-08 
480 1 -2.79107e-08 -3.1165e-08 -3.81381e-08 
478 1 -1.76545e-08 -1.26963e-08 -1.56626e-08 
479 1 -1.48475e-08 -1.56938e-08 -1.30844e-08 
481 2 0 0 0 
484 2 0 0 0 
482 1 -1.76092e-08 9.19446e-09 -4.2889e-09 
483 1 -2.24905e-08 -4.77057e-09 8.33064e-09 
485 1 8.62575e-09 -1.9318e-08 -2.28631e-08 
486 1 3.34614e-08 -1.17362e-08 1.74197e-08 
487 1 4.62941e-08 1.96364e-08 -1.04815e-08 
488 1 1.73854e-08 3.98529e-08 3.39242e-08 
489 1 -9.89107e-09 3.33902e-08 4.00373e-08 
490 1 -5.04611e-08 8.18179e-09 -3.00708e-08 
491 1 -6.94336e-08 -3.46521e-08 6.87822e-09 
492 1 -3.54758e-08 -6.93254e-08 -5.76641e-08 
493 1 5.87411e-09 -4.70523e-08 -5.4693e-08 
494 1 6.61052e-08 4.07247e-10 4.09781e-08 
495 1 8.70168e-08 4.80615e-08 1.31965e-09 
496 1 5.21562e-08 9.45076e-08 8.08141e-08 
497 1 1.44738e-09 5.90687e-08 6.4245e-08 
498 1 -7.85641e-08 -1.13766e-08 -4.95703e-08 
499 1 -9.58112e-08 -5.90298e-08 -1.16201e-08 
500 1 -6.5918e-08 -1.11116e-07 -1.00991e-07 
501 1 -9.61248e-09 -6.7982e-08 -6.69126e-08 
504 1 7.57425e-08 1.15988e-07 1.15241e-07 
502 1 8.56646e-08 2.14686e-08 5.51734e-08 
503 1 9.45817e-08 6.64596e-08 2.13613e-08 
505 1 1.6436e-08 7.18308e-08 6.29029e-08 
508 1 -8.01996e-08 -1.09282e-07 -1.20251e-07 
506 1 -8.54305e-08 -2.79823e-08 -5.65391e-08 
507 1 -8.47275e-08 -6.8509e-08 -2.82722e-08 
509 1 -2.03109e-08 -6.90333e-08 -5.38868e-08 
512 1 7.71353e-08 9.33773e-08 1.13471e-07 
510 1 7.61426e-08 2.95359e-08 5.19998e-08 
511 1 6.87677e-08 6.31233e-08 3.07842e-08 
513 1 2.03074e-08 5.81626e-08 4.16423e-08 
516 1 -6.45471e-08 -7.1652e-08 -9.34145e-08 
514 1 -5.69607e-08 -2.56834e-08 -4.02958e-08 
515 1 -4.87335e-08 -4.88348e-08 -2.76151e-08 
517 1 -1.50658e-08 -3.85599e-08 -2.66164e-08 
520 1 4.05821e-08 4.50317e-08 5.96576e-08 
518 1 2.86412e-08 1.67432e-08 2.19147e-08 
519 1 2.52576e-08 2.62858e-08 1.81547e-08 
521 2 0 0 0 
524 2 0 0 0 
522 1 2.36868e-08 -8.94643e-09 7.38531e-09 
523 1 3.07829e-08 9.08655e-09 -7.97675e-09 
525 1 -8.26203e-09 2.80617e-08 3.13085e-08 
526 1 -4.59104e-08 9.83468e-09 -2.48012e-08 
527 1 -6.25018e-08 -3.07955e-08 8.83428e-09 
528 1 -2.50758e-08 -4.96096e-08 -4.47708e-08 
529 1 8.13483e-09 -4.96732e-08 -5.39462e-08 
530 1 6.99954e-08 -4.20246e-09 4.07349e-08 
531 1 9.29475e-08 5.13399e-08 -2.60952e-09 
532 1 4.88103e-08 8.51294e-08 7.75361e-08 
533 1 -1.63087e-09 7.05836e-08 7.31294e-08 
534 1 -9.18045e-08 -7.03697e-09 -5.36953e-08 
535 1 -1.16304e-07 -6.84981e-08 -9.20658e-09 
536 1 -6.9463e-08 -1.15543e-07 -1.09182e-07 
537 1 -8.72031e-09 -8.83008e-08 -8.58598e-08 
538 1 1.08141e-07 2.05818e-08 6.33188e-08 
539 1 1.28353e-07 8.17008e-08 2.34205e-08 
540 1 8.53694e-08 1.35941e-07 1.36016e-07 
541 1 1.97348e-08 1.00348e-07 8.98153e-08 
544 1 -9.59974e-08 -1.42744e-07 -1.53809e-07 
542 1 -1.16316e-07 -3.25387e-08 -6.92234e-08 
543 1 -1.27412e-07 -9.01765e-08 -3.58485e-08 
545 1 -2.81823e-08 -1.04456e-07 -8.48894e-08 
548 1 1.00104e-07 1.3526e-07 1.58527e-07 
546 1 1.14099e-07 3.92566e-08 7.00674e-08 
547 1 1.14589e-07 9.18092e-08 4.33518e-08 
549 1 3.17072e-08 9.86695e-08 7.28794e-08 
552 1 -9.53895e-08 -1.16141e-07 -1.47566e-07 
550 1 -1.00104e-07 -3.9058e-08 -6.38966e-08 
551 1 -9.30776e-08 -8.39026e-08 -4.3765e-08 
553 1 -2.92873e-08 -8.20232e-08 -5.60916e-08 
556 1 7.90368e-08 8.88258e-08 1.19833e-07 
554 1 7.38973e-08 3.19529e-08 4.89078e-08 
555 1 6.54707e-08 6.43534e-08 3.6221e-08 
557 1 2.0068e-08 5.36033e-08 3.52387e-08 
560 1 -4.91749e-08 -5.5389e-08 -7.55375e-08 
558 1 -3.70262e-08 -1.91954e-08 -2.59254e-08 
559 1 -3.37167e-08 -3.38721e-08 -2.11247e-08 
561 2 0 0 0 
564 2 0 0 0 
562 1 -2.78404e-08 6.97559e-09 -9.77503e-09 
563 1 -3.62073e-08 -1.28112e-08 5.70684e-09 
565 1 5.37143e-09 -3.47413e-08 -3.6825e-08 
566 1 5.4725e-08 -4.95145e-09 2.97386e-08 
567 1 7.25796e-08 3.9683e-08 -3.61479e-09 
568 1 3.03031e-08 5.44725e-08 5.21145e-08 
569 1 -2.78218e-09 6.25628e-08 6.25247e-08 
570 1 -8.40797e-08 -3.00994e-09 -4.75806e-08 
571 1 -1.07199e-07 -6.4116e-08 -5.69379e-09 
572 1 -5.76341e-08 -9.26838e-08 -9.13958e-08 
573 1 -6.06629e-09 -8.94459e-08 -8.43169e-08 
574 1 1.10276e-07 1.58335e-08 6.16495e-08 
575 1 1.33942e-07 8.3523e-08 2.0453e-08 
576 1 8.0439e-08 1.2546e-07 1.2952e-07 
577 1 1.8542e-08 1.11686e-07 9.90363e-08 
578 1 -1.29205e-07 -3.04061e-08 -7.17863e-08 
579 1 -1.48452e-07 -9.77889e-08 -3.70566e-08 
580 1 -9.75086e-08 -1.48119e-07 -1.60948e-07 
581 1 -3.09617e-08 -1.25784e-07 -1.04372e-07 
584 1 1.08335e-07 1.56539e-07 1.80426e-07 
582 1 1.37341e-07 4.2352e-08 7.7697e-08 
583 1 1.48339e-07 1.06366e-07 5.05139e-08 
585 1 3.94907e-08 1.29095e-07 9.9376e-08 
588 1 -1.11957e-07 -1.49469e-07 -1.83759e-07 
586 1 -1.32829e-07 -4.79388e-08 -7.80265e-08 
587 1 -1.34277e-07 -1.07291e-07 -5.69354e-08 
589 1 -4.15494e-08 -1.20116e-07 -8.5817e-08 
592 1 1.05758e-07 1.28768e-07 1.68574e-07 
590 1 1.14793e-07 4.54551e-08 7.05103e-08 
591 1 1.09313e-07 9.72722e-08 5.41012e-08 
593 1 3.61879e-08 9.8364e-08 6.58692e-08 
596 1 -8.69069e-08 -9.83306e-08 -1.34802e-07 
594 1 -8.36722e-08 -3.53166e-08 -5.3407e-08 
595 1 -7.66518e-08 -7.38452e-08 -4.18911e-08 
597 1 -2.33834e-08 -6.36191e-08 -4.09722e-08 
600 1 5.34539e-08 6.07812e-08 8.39133e-08 
598 1 4.18312e-08 1.96956e-08 2.75252e-08 
599 1 3.92215e-08 3.80563e-08 2.20823e-08 
601 2 0 0 0 
603 1 3.81283e-08 1.51782e-08 -1.93617e-09 
605 1 -7.84265e-10 3.84944e-08 3.87842e-08 
607 1 -7.57594e-08 -4.44708e-08 -4.31899e-09 
609 1 -4.96759e-09 -7.02002e-08 -6.52003e-08 
611 1 1.11319e-07 7.04878e-08 1.64667e-08 
613 1 1.56277e-08 1.00809e-07 8.77805e-08 
615 1 -1.39375e-07 -9.08606e-08 -3.28831e-08 
617 1 -2.87114e-08 -1.25597e-07 -1.03548e-07 
619 1 1.55363e-07 1.05385e-07 4.96387e-08 
621 1 4.07505e-08 1.40259e-07 1.09821e-07 
623 1 -1.56376e-07 -1.13734e-07 -6.18289e-08 
625 1 -4.78427e-08 -1.42188e-07 -1.05514e-07 
627 1 1.42385e-07 1.13783e-07 6.5529e-08 
629 1 4.76161e-08 1.30372e-07 9.13845e-08 
631 1 -1.16073e-07 -1.02389e-07 -5.90571e-08 
633 1 -3.95872e-08 -1.05274e-07 -6.99285e-08 
635 1 8.09639e-08 7.68997e-08 4.32085e-08 
637 1 2.43276e-08 6.73602e-08 4.30035e-08 
639 1 -4.11158e-08 -3.8828e-08 -2.08593e-08 
604 2 0 0 0 
641 2 0 0 0 
602 1 2.94028e-08 -3.88066e-09 1.09998e-08 
643 1 -3.67132e-08 -1.57541e-08 -2.47718e-09 
606 1 -5.85781e-08 -1.7095e-09 -3.14654e-08 
608 1 -3.21908e-08 -5.43558e-08 -5.4919e-08 
645 1 -4.51438e-09 -3.88364e-08 -3.74088e-08 
647 1 7.25895e-08 4.44612e-08 1.31269e-08 
610 1 9.03507e-08 1.16164e-08 4.95484e-08 
612 1 6.03528e-08 9.20663e-08 9.73584e-08 
649 1 1.3248e-08 7.11467e-08 6.25772e-08 
651 1 -1.06711e-07 -6.99598e-08 -2.75637e-08 
614 1 -1.18587e-07 -2.48212e-08 -6.3849e-08 
616 1 -8.35648e-08 -1.24619e-07 -1.3831e-07 
653 1 -2.47625e-08 -1.02361e-07 -8.44168e-08 
655 1 1.34116e-07 8.97466e-08 4.37086e-08 
618 1 1.38121e-07 3.84702e-08 7.39595e-08 
620 1 1.00682e-07 1.47948e-07 1.71682e-07 
657 1 3.69177e-08 1.2715e-07 1.00203e-07 
659 1 -1.50524e-07 -1.03644e-07 -5.82617e-08 
624 1 -1.11394e-07 -1.57631e-07 -1.90983e-07 
661 1 -4.67225e-08 -1.41057e-07 -1.0719e-07 
622 1 -1.45475e-07 -4.86719e-08 -7.96823e-08 
628 1 1.14345e-07 1.51485e-07 1.92158e-07 
663 1 1.52541e-07 1.11141e-07 6.69131e-08 
665 1 5.12227e-08 1.41436e-07 1.03509e-07 
626 1 1.38837e-07 5.19796e-08 7.94504e-08 
632 1 -1.07274e-07 -1.30827e-07 -1.73618e-07 
667 1 -1.39378e-07 -1.10384e-07 -6.67736e-08 
669 1 -4.84408e-08 -1.27991e-07 -8.9717e-08 
630 1 -1.184e-07 -4.71363e-08 -7.11792e-08 
636 1 8.7355e-08 9.93604e-08 1.36854e-07 
671 1 1.13266e-07 9.83723e-08 5.70877e-08 
673 1 3.85221e-08 1.01905e-07 6.80192e-08 
634 1 8.52511e-08 3.50131e-08 5.31282e-08 
640 1 -5.30721e-08 -6.06443e-08 -8.4079e-08 
675 1 -7.82886e-08 -7.30243e-08 -3.95162e-08 
677 1 -2.26713e-08 -6.46149e-08 -4.1143e-08 
638 1 -4.25382e-08 -1.83317e-08 -2.66787e-08 
679 1 3.92951e-08 3.60173e-08 1.7515e-08 
644 2 0 0 0 
681 2 0 0 0 
642 1 -2.82322e-08 4.72921e-10 -1.09388e-08 
683 1 3.26266e-08 1.47141e-08 6.41409e-09 
646 1 5.6675e-08 8.28662e-09 3.00084e-08 
648 1 3.07629e-08 4.98369e-08 5.28396e-08 
685 1 8.94742e-09 3.5536e-08 3.3256e-08 
687 1 -6.4405e-08 -4.03449e-08 -2.04621e-08 
650 1 -8.75649e-08 -1.92995e-08 -4.69337e-08 
652 1 -5.72351e-08 -8.44721e-08 -9.38905e-08 
689 1 -1.96097e-08 -6.48807e-08 -5.56845e-08 
691 1 9.49675e-08 6.30591e-08 3.55815e-08 
654 1 1.14598e-07 3.14821e-08 6.02245e-08 
656 1 7.89876e-08 1.14765e-07 1.3352e-07 
693 1 3.07691e-08 9.31097e-08 7.54783e-08 
695 1 -1.20052e-07 -8.05915e-08 -4.98364e-08 
658 1 -1.32911e-07 -4.26821e-08 -6.97135e-08 
660 1 -9.49752e-08 -1.37181e-07 -1.65076e-07 
697 1 -4.07152e-08 -1.15221e-07 -9.02844e-08 
699 1 1.35561e-07 9.24997e-08 6.02441e-08 
664 1 1.04467e-07 1.47173e-07 1.82279e-07 
701 1 4.74181e-08 1.27004e-07 9.70919e-08 
662 1 1.38748e-07 4.97721e-08 7.45636e-08 
668 1 -1.0651e-07 -1.4206e-07 -1.81271e-07 
703 1 -1.37939e-07 -9.82869e-08 -6.41605e-08 
705 1 -4.87723e-08 -1.26077e-07 -9.39373e-08 
666 1 -1.30929e-07 -5.03736e-08 -7.37714e-08 
672 1 9.89226e-08 1.22475e-07 1.61648e-07 
707 1 1.2594e-07 9.63594e-08 6.00513e-08 
709 1 4.3915e-08 1.12729e-07 8.10028e-08 
670 1 1.10245e-07 4.36767e-08 6.52245e-08 
676 1 -7.96754e-08 -9.20811e-08 -1.25578e-07 
711 1 -1.01632e-07 -8.46576e-08 -4.84475e-08 
713 1 -3.33467e-08 -8.86787e-08 -6.05744e-08 
674 1 -7.8563e-08 -3.10126e-08 -4.79605e-08 
680 1 4.77232e-08 5.51895e-08 7.62557e-08 
715 1 6.92133e-08 6.19268e-08 3.14639e-08 
717 1 1.87023e-08 5.56938e-08 3.57472e-08 
678 1 3.91139e-08 1.52241e-08 2.33397e-08 
719 1 -3.42729e-08 -2.98541e-08 -1.24386e-08 
684 2 0 0 0 
721 2 0 0 0 
682 1 2.43764e-08 2.35917e-09 9.88146e-09 
723 1 -2.64136e-08 -1.23433e-08 -8.72418e-09 
686 1 -4.90515e-08 -1.2687e-08 -2.61161e-08 
688 1 -2.67113e-08 -4.19866e-08 -4.57791e-08 
725 1 -1.09929e-08 -2.85732e-08 -2.70703e-08 
727 1 5.21225e-08 3.25328e-08 2.31551e-08 
690 1 7.5316e-08 2.33686e-08 4.04553e-08 
692 1 4.92428e-08 7.11947e-08 8.08458e-08 
729 1 2.164e-08 5.15545e-08 4.51926e-08 
731 1 -7.70293e-08 -5.03255e-08 -3.67448e-08 
694 1 -9.81317e-08 -3.33992e-08 -5.16143e-08 
696 1 -6.76267e-08 -9.72185e-08 -1.1403e-07 
733 1 -3.10985e-08 -7.33311e-08 -6.14521e-08 
735 1 9.76009e-08 6.37798e-08 4.7476e-08 
698 1 1.13095e-07 4.11454e-08 5.90642e-08 
700 1 8.07057e-08 1.16763e-07 1.40039e-07 
737 1 3.81859e-08 9.014e-08 7.36652e-08 
739 1 -1.10443e-07 -7.23295e-08 -5.33408e-08 
704 1 -8.79154e-08 -1.25802e-07 -1.53199e-07 
741 1 -4.16374e-08 -9.86063e-08 -7.93373e-08 
702 1 -1.17151e-07 -4.48306e-08 -6.23547e-08 
708 1 8.82168e-08 1.21455e-07 1.50797e-07 
743 1 1.12364e-07 7.54172e-08 5.31406e-08 
745 1 4.05113e-08 9.69616e-08 7.64786e-08 
706 1 1.09471e-07 4.30501e-08 6.04465e-08 
712 1 -8.0571e-08 -1.04187e-07 -1.32875e-07 
747 1 -1.02162e-07 -7.23733e-08 -4.6624e-08 
749 1 -3.47505e-08 -8.5781e-08 -6.53419e-08 
710 1 -9.11686e-08 -3.57573e-08 -5.25142e-08 
716 1 6.3743e-08 7.71958e-08 1.02104e-07 
751 1 8.14946e-08 6.22091e-08 3.52015e-08 
753 1 2.52277e-08 6.67109e-08 4.79932e-08 
714 1 6.43467e-08 2.41715e-08 3.77692e-08 
720 1 -3.75362e-08 -4.52572e-08 -6.14476e-08 
755 1 -5.46128e-08 -4.45578e-08 -2.0935e-08 
757 1 -1.33481e-08 -4.15829e-08 -2.75318e-08 
718 1 -3.20031e-08 -1.09425e-08 -1.77441e-08 
759 1 2.66754e-08 2.0846e-08 6.62348e-09 
724 2 0 0 0 
761 2 0 0 0 
722 1 -1.80852e-08 -3.59091e-09 -8.13138e-09 
763 1 1.76264e-08 8.46027e-09 7.98064e-09 
726 1 3.60826e-08 1.26026e-08 2.00074e-08 
728 1 2.03407e-08 3.10818e-08 3.40074e-08 
765 1 8.99769e-09 1.78123e-08 1.83912e-08 
767 1 -3.48943e-08 -2.06385e-08 -1.81741e-08 
730 1 -5.47048e-08 -2.09965e-08 -3.02828e-08 
732 1 -3.68599e-08 -5.26311e-08 -5.8456e-08 
769 1 -1.67785e-08 -3.12559e-08 -3.02645e-08 
771 1 5.13252e-08 3.10944e-08 2.71945e-08 
734 1 7.03494e-08 2.80421e-08 3.79138e-08 
736 1 4.9811e-08 7.17972e-08 8.09994e-08 
773 1 2.31098e-08 4.36403e-08 4.07836e-08 
775 1 -6.48133e-08 -3.86779e-08 -3.33227e-08 
738 1 -8.03692e-08 -3.25745e-08 -4.24077e-08 
740 1 -5.84349e-08 -8.6279e-08 -9.79895e-08 
777 1 -2.72476e-08 -5.30699e-08 -4.86683e-08 
779 1 7.30459e-08 4.28401e-08 3.56674e-08 
744 1 6.20508e-08 9.28289e-08 1.05847e-07 
781 1 2.85321e-08 5.74856e-08 5.1998e-08 
742 1 8.24595e-08 3.37429e-08 4.33852e-08 
748 1 -6.04948e-08 -8.93136e-08 -1.02969e-07 
783 1 -7.39058e-08 -4.33723e-08 -3.36769e-08 
785 1 -2.67992e-08 -5.60674e-08 -4.97695e-08 
746 1 -7.62857e-08 -3.09779e-08 -4.0678e-08 
752 1 5.34924e-08 7.59391e-08 8.9772e-08 
787 1 6.67101e-08 4.02129e-08 2.79571e-08 
789 1 2.2232e-08 4.90695e-08 4.20001e-08 
750 1 6.28039e-08 2.47315e-08 3.4022e-08 
756 1 -4.10363e-08 -5.5458e-08 -6.82748e-08 
791 1 -5.268e-08 -3.34298e-08 -1.9804e-08 
793 1 -1.5545e-08 -3.77545e-08 -3.0296e-08 
754 1 -4.39737e-08 -1.59483e-08 -2.36242e-08 
760 1 2.34811e-08 3.17866e-08 4.09113e-08 
795 1 3.46989e-08 2.31078e-08 1.05192e-08 
797 1 7.73916e-09 2.32832e-08 1.6823e-08 
758 1 2.19577e-08 6.2724e-09 1.04539e-08 
799 1 -1.66119e-08 -1.01869e-08 -1.50197e-09 
764 2 0 0 0 
762 1 1.00687e-08 2.19518e-09 6.33416e-09 
766 1 -1.92085e-08 -6.22879e-09 -1.17286e-08 
768 1 -1.19665e-08 -1.65778e-08 -1.80921e-08 
770 1 2.79884e-08 1.05053e-08 1.64605e-08 
772 1 1.99603e-08 2.81402e-08 2.90112e-08 
774 1 -3.50492e-08 -1.39989e-08 -1.95246e-08 
776 1 -2.58045e-08 -3.82478e-08 -3.83368e-08 
778 1 3.91533e-08 1.62282e-08 2.06106e-08 
780 1 2.88882e-08 4.56593e-08 4.4745e-08 
784 1 -2.90118e-08 -4.87987e-08 -4.71723e-08 
782 1 -3.9567e-08 -1.67109e-08 -1.9639e-08 
788 1 2.64858e-08 4.65362e-08 4.49792e-08 
786 1 3.59519e-08 1.53345e-08 1.69136e-08 
792 1 -2.17013e-08 -3.93156e-08 -3.85361e-08 
790 1 -2.89943e-08 -1.22492e-08 -1.28361e-08 
796 1 1.52513e-08 2.85392e-08 2.88393e-08 
794 1 1.97923e-08 8.00318e-09 7.7901e-09 
800 1 -7.73323e-09 -1.61082e-08 -1.69386e-08 
798 1 -9.95474e-09 -2.80691e-09 -2.27255e-09 
801 2 0 0 0 
803 2 0 0 0 
804 2 0 0 0 
802 1 6.97841e-09 -3.8308e-09 -1.69635e-09 
805 2 0 0 0 
807 2 0 0 0 
806 1 -1.201e-08 3.5083e-09 -3.76392e-09 
808 1 -3.24848e-09 -2.00467e-08 -1.24623e-08 
809 2 0 0 0 
811 2 0 0 0 
810 1 1.72668e-08 -9.80218e-10 1.0469e-08 
812 1 1.00892e-08 3.64538e-08 2.01052e-08 
813 2 0 0 0 
815 2 0 0 0 
814 1 -2.26061e-08 -2.9274e-09 -1.76398e-08 
816 1 -1.80672e-08 -5.0757e-08 -2.77517e-08 
817 2 0 0 0 
819 2 0 0 0 
818 1 2.73478e-08 7.41008e-09 2.4224e-08 
820 1 2.57797e-08 6.03959e-08 3.47675e-08 
821 2 0 0 0 
824 1 -3.19401e-08 -6.36782e-08 -3.97789e-08 
823 2 0 0 0 
825 2 0 0 0 
822 1 -3.04478e-08 -1.12821e-08 -2.89487e-08 
828 1 3.51165e-08 6.04491e-08 4.15864e-08 
827 2 0 0 0 
829 2 0 0 0 
826 1 3.08133e-08 1.39881e-08 3.05089e-08 
832 1 -3.42555e-08 -5.20188e-08 -3.92827e-08 
831 2 0 0 0 
833 2 0 0 0 
830 1 -2.78079e-08 -1.4852e-08 -2.83886e-08 
836 1 2.89355e-08 4.0048e-08 3.2621e-08 
835 2 0 0 0 
837 2 0 0 0 
834 1 2.12216e-08 1.35595e-08 2.25094e-08 
840 1 -1.89685e-08 -2.49993e-08 -2.16666e-08 
839 2 0 0 0 
838 1 -1.12842e-08 -9.8041e-09 -1.45172e-08 
841 2 0 0 0 
844 2 0 0 0 
842 1 -1.85889e-08 7.79692e-09 -3.63751e-09 
843 1 -1.9966e-08 -3.01429e-09 6.31045e-09 
845 1 6.17181e-09 -1.74666e-08 -2.39079e-08 
846 1 3.42714e-08 -9.16287e-09 1.80072e-08 
847 1 4.17954e-08 1.50196e-08 -6.01204e-09 
848 1 1.53923e-08 4.14244e-08 3.16709e-08 
849 1 -6.4949e-09 2.92207e-08 4.35392e-08 
850 1 -5.10138e-08 5.44981e-09 -3.36069e-08 
851 1 -6.37426e-08 -2.81295e-08 2.35693e-09 
852 1 -3.3243e-08 -7.39065e-08 -5.30035e-08 
853 1 3.06492e-09 -4.08782e-08 -6.07688e-08 
854 1 6.70057e-08 2.4429e-09 4.82882e-08 
855 1 8.08229e-08 4.06693e-08 3.5038e-09 
856 1 5.12647e-08 1.02355e-07 7.39621e-08 
857 1 2.48027e-09 5.15082e-08 7.22137e-08 
858 1 -8.02137e-08 -1.19754e-08 -6.06798e-08 
859 1 -8.97881e-08 -5.12745e-08 -1.04653e-08 
860 1 -6.71198e-08 -1.21219e-07 -9.2684e-08 
861 1 -8.71677e-09 -5.9467e-08 -7.58742e-08 
864 1 7.87995e-08 1.27233e-07 1.05905e-07 
862 1 8.81271e-08 2.10982e-08 6.88526e-08 
863 1 8.9517e-08 5.81911e-08 1.71753e-08 
865 1 1.42178e-08 6.27816e-08 7.19536e-08 
868 1 -8.38801e-08 -1.20333e-07 -1.10451e-07 
866 1 -8.81083e-08 -2.75349e-08 -7.06747e-08 
867 1 -8.10768e-08 -5.95722e-08 -2.26009e-08 
869 1 -1.79607e-08 -5.98965e-08 -6.22689e-08 
872 1 8.01453e-08 1.03369e-07 1.03785e-07 
870 1 7.84204e-08 3.00605e-08 6.43268e-08 
871 1 6.65749e-08 5.3917e-08 2.53881e-08 
873 1 1.8748e-08 4.98536e-08 4.87796e-08 
876 1 -6.61259e-08 -7.94973e-08 -8.50842e-08 
874 1 -5.8362e-08 -2.71367e-08 -4.90714e-08 
875 1 -4.75595e-08 -4.08395e-08 -2.41659e-08 
877 1 -1.45949e-08 -3.2356e-08 -3.17562e-08 