LAMMPS data file from restart file: timestep = 43, procs = 1

1860 atoms

2 atom types

0.0000000000000000e+00 6.7961769793884912e+01 xlo xhi
-3.1412885202249455e-03 2.9216044792422320e+01 ylo yhi
-2.8317404080785380e-01 2.8317404080785380e-01 zlo zhi

Masses

1 1
2 1

Pair Coeffs

1 1 1
2 1 1

Atoms

1 2 0.0000000000000000e+00 0.0000000000000000e+00 0.0000000000000000e+00 0 0 0
3 2 1.1326961632314152e+00 0.0000000000000000e+00 0.0000000000000000e+00 0 0 0
2 2 5.6634808161570760e-01 9.8094365212757073e-01 0.0000000000000000e+00 0 0 0
5 2 2.2653923264628304e+00 0.0000000000000000e+00 0.0000000000000000e+00 0 0 0
4 2 1.6990442448471228e+00 9.8094365212757073e-01 0.0000000000000000e+00 0 0 0
7 2 3.3980884896942456e+00 0.0000000000000000e+00 0.0000000000000000e+00 0 0 0
6 2 2.8317404080785380e+00 9.8094365212757073e-01 0.0000000000000000e+00 0 0 0
8 2 3.9644365713099532e+00 9.8094365212757073e-01 0.0000000000000000e+00 0 0 0
9 2 4.5307846529256608e+00 0.0000000000000000e+00 0.0000000000000000e+00 0 0 0
10 2 5.0971327345413684e+00 9.8094365212757073e-01 0.0000000000000000e+00 0 0 0
11 2 5.6634808161570760e+00 0.0000000000000000e+00 0.0000000000000000e+00 0 0 0
13 2 6.7961769793884912e+00 0.0000000000000000e+00 0.0000000000000000e+00 0 0 0
12 2 6.2298288977727836e+00 9.8094365212757073e-01 0.0000000000000000e+00 0 0 0
15 2 7.9288731426199064e+00 0.0000000000000000e+00 0.0000000000000000e+00 0 0 0
14 2 7.3625250610041988e+00 9.8094365212757073e-01 0.0000000000000000e+00 0 0 0
17 2 9.0615693058513216e+00 0.0000000000000000e+00 0.0000000000000000e+00 0 0 0
16 2 8.4952212242356140e+00 9.8094365212757073e-01 0.0000000000000000e+00 0 0 0
18 2 9.6279173874670292e+00 9.8094365212757073e-01 0.0000000000000000e+00 0 0 0
19 2 1.0194265469082737e+01 0.0000000000000000e+00 0.0000000000000000e+00 0 0 0
20 2 1.0760613550698444e+01 9.8094365212757073e-01 0.0000000000000000e+00 0 0 0
21 2 1.1326961632314152e+01 0.0000000000000000e+00 0.0000000000000000e+00 0 0 0
23 2 1.2459657795545567e+01 0.0000000000000000e+00 0.0000000000000000e+00 0 0 0
22 2 1.1893309713929860e+01 9.8094365212757073e-01 0.0000000000000000e+00 0 0 0
25 2 1.3592353958776982e+01 0.0000000000000000e+00 0.0000000000000000e+00 0 0 0
24 2 1.3026005877161275e+01 9.8094365212757073e-01 0.0000000000000000e+00 0 0 0
27 2 1.4725050122008398e+01 0.0000000000000000e+00 0.0000000000000000e+00 0 0 0
26 2 1.4158702040392690e+01 9.8094365212757073e-01 0.0000000000000000e+00 0 0 0
28 2 1.5291398203624105e+01 9.8094365212757073e-01 0.0000000000000000e+00 0 0 0
29 2 1.5857746285239813e+01 0.0000000000000000e+00 0.0000000000000000e+00 0 0 0
30 2 1.6424094366855520e+01 9.8094365212757073e-01 0.0000000000000000e+00 0 0 0
31 2 1.6990442448471228e+01 0.0000000000000000e+00 0.0000000000000000e+00 0 0 0
33 2 1.8123138611702643e+01 0.0000000000000000e+00 0.0000000000000000e+00 0 0 0
32 2 1.7556790530086936e+01 9.8094365212757073e-01 0.0000000000000000e+00 0 0 0
35 2 1.9255834774934058e+01 0.0000000000000000e+00 0.0000000000000000e+00 0 0 0
34 2 1.8689486693318351e+01 9.8094365212757073e-01 0.0000000000000000e+00 0 0 0
37 2 2.0388530938165474e+01 0.0000000000000000e+00 0.0000000000000000e+00 0 0 0
36 2 1.9822182856549766e+01 9.8094365212757073e-01 0.0000000000000000e+00 0 0 0
38 2 2.0954879019781181e+01 9.8094365212757073e-01 0.0000000000000000e+00 0 0 0
39 2 2.1521227101396889e+01 0.0000000000000000e+00 0.0000000000000000e+00 0 0 0
40 2 2.2087575183012596e+01 9.8094365212757073e-01 0.0000000000000000e+00 0 0 0
41 2 2.2653923264628304e+01 0.0000000000000000e+00 0.0000000000000000e+00 0 0 0
43 2 2.3786619427859719e+01 0.0000000000000000e+00 0.0000000000000000e+00 0 0 0
42 2 2.3220271346244012e+01 9.8094365212757073e-01 0.0000000000000000e+00 0 0 0
45 2 2.4919315591091134e+01 0.0000000000000000e+00 0.0000000000000000e+00 0 0 0
44 2 2.4352967509475427e+01 9.8094365212757073e-01 0.0000000000000000e+00 0 0 0
47 2 2.6052011754322550e+01 0.0000000000000000e+00 0.0000000000000000e+00 0 0 0
46 2 2.5485663672706842e+01 9.8094365212757073e-01 0.0000000000000000e+00 0 0 0
48 2 2.6618359835938257e+01 9.8094365212757073e-01 0.0000000000000000e+00 0 0 0
49 2 2.7184707917553965e+01 0.0000000000000000e+00 0.0000000000000000e+00 0 0 0
50 2 2.7751055999169672e+01 9.8094365212757073e-01 0.0000000000000000e+00 0 0 0
51 2 2.8317404080785380e+01 0.0000000000000000e+00 0.0000000000000000e+00 0 0 0
53 2 2.9450100244016795e+01 0.0000000000000000e+00 0.0000000000000000e+00 0 0 0
52 2 2.8883752162401088e+01 9.8094365212757073e-01 0.0000000000000000e+00 0 0 0
55 2 3.0582796407248210e+01 0.0000000000000000e+00 0.0000000000000000e+00 0 0 0
54 2 3.0016448325632503e+01 9.8094365212757073e-01 0.0000000000000000e+00 0 0 0
57 2 3.1715492570479626e+01 0.0000000000000000e+00 0.0000000000000000e+00 0 0 0
56 2 3.1149144488863918e+01 9.8094365212757073e-01 0.0000000000000000e+00 0 0 0
58 2 3.2281840652095333e+01 9.8094365212757073e-01 0.0000000000000000e+00 0 0 0
59 2 3.2848188733711041e+01 0.0000000000000000e+00 0.0000000000000000e+00 0 0 0
60 2 3.3414536815326748e+01 9.8094365212757073e-01 0.0000000000000000e+00 0 0 0
61 2 3.3980884896942456e+01 0.0000000000000000e+00 0.0000000000000000e+00 0 0 0
63 2 3.5113581060173871e+01 0.0000000000000000e+00 0.0000000000000000e+00 0 0 0
62 2 3.4547232978558164e+01 9.8094365212757073e-01 0.0000000000000000e+00 0 0 0
65 2 3.6246277223405286e+01 0.0000000000000000e+00 0.0000000000000000e+00 0 0 0
64 2 3.5679929141789579e+01 9.8094365212757073e-01 0.0000000000000000e+00 0 0 0
67 2 3.7378973386636702e+01 0.0000000000000000e+00 0.0000000000000000e+00 0 0 0
66 2 3.6812625305020994e+01 9.8094365212757073e-01 0.0000000000000000e+00 0 0 0
68 2 3.7945321468252409e+01 9.8094365212757073e-01 0.0000000000000000e+00 0 0 0
69 2 3.8511669549868117e+01 0.0000000000000000e+00 0.0000000000000000e+00 0 0 0
70 2 3.9078017631483824e+01 9.8094365212757073e-01 0.0000000000000000e+00 0 0 0
71 2 3.9644365713099532e+01 0.0000000000000000e+00 0.0000000000000000e+00 0 0 0
73 2 4.0777061876330947e+01 0.0000000000000000e+00 0.0000000000000000e+00 0 0 0
72 2 4.0210713794715240e+01 9.8094365212757073e-01 0.0000000000000000e+00 0 0 0
75 2 4.1909758039562362e+01 0.0000000000000000e+00 0.0000000000000000e+00 0 0 0
74 2 4.1343409957946655e+01 9.8094365212757073e-01 0.0000000000000000e+00 0 0 0
77 2 4.3042454202793778e+01 0.0000000000000000e+00 0.0000000000000000e+00 0 0 0
76 2 4.2476106121178070e+01 9.8094365212757073e-01 0.0000000000000000e+00 0 0 0
78 2 4.3608802284409485e+01 9.8094365212757073e-01 0.0000000000000000e+00 0 0 0
79 2 4.4175150366025193e+01 0.0000000000000000e+00 0.0000000000000000e+00 0 0 0
80 2 4.4741498447640900e+01 9.8094365212757073e-01 0.0000000000000000e+00 0 0 0
81 2 4.5307846529256608e+01 0.0000000000000000e+00 0.0000000000000000e+00 0 0 0
83 2 4.6440542692488023e+01 0.0000000000000000e+00 0.0000000000000000e+00 0 0 0
82 2 4.5874194610872316e+01 9.8094365212757073e-01 0.0000000000000000e+00 0 0 0
85 2 4.7573238855719438e+01 0.0000000000000000e+00 0.0000000000000000e+00 0 0 0
84 2 4.7006890774103731e+01 9.8094365212757073e-01 0.0000000000000000e+00 0 0 0
87 2 4.8705935018950854e+01 0.0000000000000000e+00 0.0000000000000000e+00 0 0 0
86 2 4.8139586937335146e+01 9.8094365212757073e-01 0.0000000000000000e+00 0 0 0
88 2 4.9272283100566561e+01 9.8094365212757073e-01 0.0000000000000000e+00 0 0 0
89 2 4.9838631182182269e+01 0.0000000000000000e+00 0.0000000000000000e+00 0 0 0
90 2 5.0404979263797976e+01 9.8094365212757073e-01 0.0000000000000000e+00 0 0 0
91 2 5.0971327345413684e+01 0.0000000000000000e+00 0.0000000000000000e+00 0 0 0
93 2 5.2104023508645099e+01 0.0000000000000000e+00 0.0000000000000000e+00 0 0 0
92 2 5.1537675427029392e+01 9.8094365212757073e-01 0.0000000000000000e+00 0 0 0
95 2 5.3236719671876514e+01 0.0000000000000000e+00 0.0000000000000000e+00 0 0 0
94 2 5.2670371590260807e+01 9.8094365212757073e-01 0.0000000000000000e+00 0 0 0
97 2 5.4369415835107930e+01 0.0000000000000000e+00 0.0000000000000000e+00 0 0 0
96 2 5.3803067753492222e+01 9.8094365212757073e-01 0.0000000000000000e+00 0 0 0
98 2 5.4935763916723637e+01 9.8094365212757073e-01 0.0000000000000000e+00 0 0 0
99 2 5.5502111998339345e+01 0.0000000000000000e+00 0.0000000000000000e+00 0 0 0
100 2 5.6068460079955052e+01 9.8094365212757073e-01 0.0000000000000000e+00 0 0 0
101 2 5.6634808161570760e+01 0.0000000000000000e+00 0.0000000000000000e+00 0 0 0
103 2 5.7767504324802175e+01 0.0000000000000000e+00 0.0000000000000000e+00 0 0 0
102 2 5.7201156243186468e+01 9.8094365212757073e-01 0.0000000000000000e+00 0 0 0
105 2 5.8900200488033590e+01 0.0000000000000000e+00 0.0000000000000000e+00 0 0 0
104 2 5.8333852406417883e+01 9.8094365212757073e-01 0.0000000000000000e+00 0 0 0
107 2 6.0032896651265006e+01 0.0000000000000000e+00 0.0000000000000000e+00 0 0 0
106 2 5.9466548569649298e+01 9.8094365212757073e-01 0.0000000000000000e+00 0 0 0
108 2 6.0599244732880713e+01 9.8094365212757073e-01 0.0000000000000000e+00 0 0 0
109 2 6.1165592814496421e+01 0.0000000000000000e+00 0.0000000000000000e+00 0 0 0
110 2 6.1731940896112128e+01 9.8094365212757073e-01 0.0000000000000000e+00 0 0 0
111 2 6.2298288977727836e+01 0.0000000000000000e+00 0.0000000000000000e+00 0 0 0
113 2 6.3430985140959251e+01 0.0000000000000000e+00 0.0000000000000000e+00 0 0 0
112 2 6.2864637059343544e+01 9.8094365212757073e-01 0.0000000000000000e+00 0 0 0
115 2 6.4563681304190666e+01 0.0000000000000000e+00 0.0000000000000000e+00 0 0 0
114 2 6.3997333222574959e+01 9.8094365212757073e-01 0.0000000000000000e+00 0 0 0
117 2 6.5696377467422082e+01 0.0000000000000000e+00 0.0000000000000000e+00 0 0 0
116 2 6.5130029385806381e+01 9.8094365212757073e-01 0.0000000000000000e+00 0 0 0
118 2 6.6262725549037782e+01 9.8094365212757073e-01 0.0000000000000000e+00 0 0 0
119 2 6.6829073630653497e+01 0.0000000000000000e+00 0.0000000000000000e+00 0 0 0
120 2 6.7395421712269211e+01 9.8094365212757073e-01 0.0000000000000000e+00 0 0 0
121 2 0.0000000000000000e+00 1.9618873042551415e+00 0.0000000000000000e+00 0 0 0
123 2 1.1326961632314152e+00 1.9618873042551415e+00 0.0000000000000000e+00 0 0 0
125 2 2.2653923264628304e+00 1.9618873042551415e+00 0.0000000000000000e+00 0 0 0
127 2 3.3980884896942456e+00 1.9618873042551415e+00 0.0000000000000000e+00 0 0 0
129 2 4.5307846529256608e+00 1.9618873042551415e+00 0.0000000000000000e+00 0 0 0
131 2 5.6634808161570760e+00 1.9618873042551415e+00 0.0000000000000000e+00 0 0 0
133 2 6.7961769793884912e+00 1.9618873042551415e+00 0.0000000000000000e+00 0 0 0
135 2 7.9288731426199064e+00 1.9618873042551415e+00 0.0000000000000000e+00 0 0 0
137 2 9.0615693058513216e+00 1.9618873042551415e+00 0.0000000000000000e+00 0 0 0
139 2 1.0194265469082737e+01 1.9618873042551415e+00 0.0000000000000000e+00 0 0 0
141 2 1.1326961632314152e+01 1.9618873042551415e+00 0.0000000000000000e+00 0 0 0
143 2 1.2459657795545567e+01 1.9618873042551415e+00 0.0000000000000000e+00 0 0 0
145 2 1.3592353958776982e+01 1.9618873042551415e+00 0.0000000000000000e+00 0 0 0
147 2 1.4725050122008398e+01 1.9618873042551415e+00 0.0000000000000000e+00 0 0 0
149 2 1.5857746285239813e+01 1.9618873042551415e+00 0.0000000000000000e+00 0 0 0
151 2 1.6990442448471228e+01 1.9618873042551415e+00 0.0000000000000000e+00 0 0 0
153 2 1.8123138611702643e+01 1.9618873042551415e+00 0.0000000000000000e+00 0 0 0
155 2 1.9255834774934058e+01 1.9618873042551415e+00 0.0000000000000000e+00 0 0 0
157 2 2.0388530938165474e+01 1.9618873042551415e+00 0.0000000000000000e+00 0 0 0
159 2 2.1521227101396889e+01 1.9618873042551415e+00 0.0000000000000000e+00 0 0 0
161 2 2.2653923264628304e+01 1.9618873042551415e+00 0.0000000000000000e+00 0 0 0
163 2 2.3786619427859719e+01 1.9618873042551415e+00 0.0000000000000000e+00 0 0 0
165 2 2.4919315591091134e+01 1.9618873042551415e+00 0.0000000000000000e+00 0 0 0
167 2 2.6052011754322550e+01 1.9618873042551415e+00 0.0000000000000000e+00 0 0 0
169 2 2.7184707917553965e+01 1.9618873042551415e+00 0.0000000000000000e+00 0 0 0
171 2 2.8317404080785380e+01 1.9618873042551415e+00 0.0000000000000000e+00 0 0 0
173 2 2.9450100244016795e+01 1.9618873042551415e+00 0.0000000000000000e+00 0 0 0
175 2 3.0582796407248210e+01 1.9618873042551415e+00 0.0000000000000000e+00 0 0 0
177 2 3.1715492570479626e+01 1.9618873042551415e+00 0.0000000000000000e+00 0 0 0
179 2 3.2848188733711041e+01 1.9618873042551415e+00 0.0000000000000000e+00 0 0 0
181 2 3.3980884896942456e+01 1.9618873042551415e+00 0.0000000000000000e+00 0 0 0
183 2 3.5113581060173871e+01 1.9618873042551415e+00 0.0000000000000000e+00 0 0 0
185 2 3.6246277223405286e+01 1.9618873042551415e+00 0.0000000000000000e+00 0 0 0
187 2 3.7378973386636702e+01 1.9618873042551415e+00 0.0000000000000000e+00 0 0 0
189 2 3.8511669549868117e+01 1.9618873042551415e+00 0.0000000000000000e+00 0 0 0
191 2 3.9644365713099532e+01 1.9618873042551415e+00 0.0000000000000000e+00 0 0 0
193 2 4.0777061876330947e+01 1.9618873042551415e+00 0.0000000000000000e+00 0 0 0
195 2 4.1909758039562362e+01 1.9618873042551415e+00 0.0000000000000000e+00 0 0 0
197 2 4.3042454202793778e+01 1.9618873042551415e+00 0.0000000000000000e+00 0 0 0
199 2 4.4175150366025193e+01 1.9618873042551415e+00 0.0000000000000000e+00 0 0 0
201 2 4.5307846529256608e+01 1.9618873042551415e+00 0.0000000000000000e+00 0 0 0
203 2 4.6440542692488023e+01 1.9618873042551415e+00 0.0000000000000000e+00 0 0 0
205 2 4.7573238855719438e+01 1.9618873042551415e+00 0.0000000000000000e+00 0 0 0
207 2 4.8705935018950854e+01 1.9618873042551415e+00 0.0000000000000000e+00 0 0 0
209 2 4.9838631182182269e+01 1.9618873042551415e+00 0.0000000000000000e+00 0 0 0
211 2 5.0971327345413684e+01 1.9618873042551415e+00 0.0000000000000000e+00 0 0 0
213 2 5.2104023508645099e+01 1.9618873042551415e+00 0.0000000000000000e+00 0 0 0
215 2 5.3236719671876514e+01 1.9618873042551415e+00 0.0000000000000000e+00 0 0 0
217 2 5.4369415835107930e+01 1.9618873042551415e+00 0.0000000000000000e+00 0 0 0
219 2 5.5502111998339345e+01 1.9618873042551415e+00 0.0000000000000000e+00 0 0 0
221 2 5.6634808161570760e+01 1.9618873042551415e+00 0.0000000000000000e+00 0 0 0
223 2 5.7767504324802175e+01 1.9618873042551415e+00 0.0000000000000000e+00 0 0 0
225 2 5.8900200488033590e+01 1.9618873042551415e+00 0.0000000000000000e+00 0 0 0
227 2 6.0032896651265006e+01 1.9618873042551415e+00 0.0000000000000000e+00 0 0 0
229 2 6.1165592814496421e+01 1.9618873042551415e+00 0.0000000000000000e+00 0 0 0
231 2 6.2298288977727836e+01 1.9618873042551415e+00 0.0000000000000000e+00 0 0 0
233 2 6.3430985140959251e+01 1.9618873042551415e+00 0.0000000000000000e+00 0 0 0
235 2 6.4563681304190666e+01 1.9618873042551415e+00 0.0000000000000000e+00 0 0 0
237 2 6.5696377467422082e+01 1.9618873042551415e+00 0.0000000000000000e+00 0 0 0
239 2 6.6829073630653497e+01 1.9618873042551415e+00 0.0000000000000000e+00 0 0 0
122 2 5.6634808161570760e-01 2.9428309563827124e+00 0.0000000000000000e+00 0 0 0
243 1 1.1286195266450736e+00 3.8990786969417583e+00 0.0000000000000000e+00 0 0 0
124 2 1.6990442448471228e+00 2.9428309563827124e+00 0.0000000000000000e+00 0 0 0
245 1 2.2593581301921115e+00 3.8984718054862255e+00 0.0000000000000000e+00 0 0 0
126 2 2.8317404080785380e+00 2.9428309563827124e+00 0.0000000000000000e+00 0 0 0
128 2 3.9644365713099532e+00 2.9428309563827124e+00 0.0000000000000000e+00 0 0 0
247 1 3.3900866865749339e+00 3.8977640429244764e+00 0.0000000000000000e+00 0 0 0
130 2 5.0971327345413684e+00 2.9428309563827124e+00 0.0000000000000000e+00 0 0 0
249 1 4.5207854934382832e+00 3.8969575571566670e+00 0.0000000000000000e+00 0 0 0
251 1 5.6514304567613953e+00 3.8960510218912083e+00 0.0000000000000000e+00 0 0 0
132 2 6.2298288977727836e+00 2.9428309563827124e+00 0.0000000000000000e+00 0 0 0
253 1 6.7819942710838665e+00 3.8950390506573598e+00 0.0000000000000000e+00 0 0 0
134 2 7.3625250610041988e+00 2.9428309563827124e+00 0.0000000000000000e+00 0 0 0
255 1 7.9124476537580337e+00 3.8939116083206060e+00 0.0000000000000000e+00 0 0 0
136 2 8.4952212242356140e+00 2.9428309563827124e+00 0.0000000000000000e+00 0 0 0
138 2 9.6279173874670292e+00 2.9428309563827124e+00 0.0000000000000000e+00 0 0 0
257 1 9.0427606894306063e+00 3.8926533104064114e+00 0.0000000000000000e+00 0 0 0
140 2 1.0760613550698444e+01 2.9428309563827124e+00 0.0000000000000000e+00 0 0 0
259 1 1.0172904444668108e+01 3.8912424840824240e+00 0.0000000000000000e+00 0 0 0
261 1 1.1302853226926848e+01 3.8896497952906302e+00 0.0000000000000000e+00 0 0 0
142 2 1.1893309713929860e+01 2.9428309563827124e+00 0.0000000000000000e+00 0 0 0
263 1 1.2432588368860989e+01 3.8878360855531175e+00 0.0000000000000000e+00 0 0 0
144 2 1.3026005877161275e+01 2.9428309563827124e+00 0.0000000000000000e+00 0 0 0
265 1 1.3562105659198668e+01 3.8857487512115960e+00 0.0000000000000000e+00 0 0 0
146 2 1.4158702040392690e+01 2.9428309563827124e+00 0.0000000000000000e+00 0 0 0
148 2 1.5291398203624105e+01 2.9428309563827124e+00 0.0000000000000000e+00 0 0 0
267 1 1.4691431685041959e+01 3.8833154890181714e+00 0.0000000000000000e+00 0 0 0
150 2 1.6424094366855520e+01 2.9428309563827124e+00 0.0000000000000000e+00 0 0 0
269 1 1.5820662686835380e+01 3.8804338411748942e+00 0.0000000000000000e+00 0 0 0
271 1 1.6950062756509944e+01 3.8769578251328243e+00 0.0000000000000000e+00 0 0 0
152 2 1.7556790530086936e+01 2.9428309563827124e+00 0.0000000000000000e+00 0 0 0
273 1 1.8080326815869338e+01 3.8727109570478362e+00 0.0000000000000000e+00 0 0 0
154 2 1.8689486693318351e+01 2.9428309563827124e+00 0.0000000000000000e+00 0 0 0
275 1 1.9213334802471490e+01 3.8677626971707535e+00 0.0000000000000000e+00 0 0 0
156 2 1.9822182856549766e+01 2.9428309563827124e+00 0.0000000000000000e+00 0 0 0
158 2 2.0954879019781181e+01 2.9428309563827124e+00 0.0000000000000000e+00 0 0 0
277 1 2.0354547908032181e+01 3.8648378339709919e+00 0.0000000000000000e+00 0 0 0
160 2 2.2087575183012596e+01 2.9428309563827124e+00 0.0000000000000000e+00 0 0 0
279 1 2.1521140647812203e+01 3.8931033885718174e+00 0.0000000000000000e+00 0 0 0
162 2 2.3220271346244012e+01 2.9428309563827124e+00 0.0000000000000000e+00 0 0 0
281 1 2.2661180225379184e+01 3.9044503935331716e+00 0.0000000000000000e+00 0 0 0
283 1 2.3794518422392876e+01 3.9104148304928201e+00 0.0000000000000000e+00 0 0 0
164 2 2.4352967509475427e+01 2.9428309563827124e+00 0.0000000000000000e+00 0 0 0
285 1 2.4925174354853763e+01 3.9127000658787754e+00 0.0000000000000000e+00 0 0 0
166 2 2.5485663672706842e+01 2.9428309563827124e+00 0.0000000000000000e+00 0 0 0
168 2 2.6618359835938257e+01 2.9428309563827124e+00 0.0000000000000000e+00 0 0 0
287 1 2.6055119462674153e+01 3.9121956285122126e+00 0.0000000000000000e+00 0 0 0
170 2 2.7751055999169672e+01 2.9428309563827124e+00 0.0000000000000000e+00 0 0 0
289 1 2.7185644404115902e+01 3.9098462885052716e+00 0.0000000000000000e+00 0 0 0
291 1 2.8317283783558956e+01 3.9067311388997279e+00 0.0000000000000000e+00 0 0 0
172 2 2.8883752162401088e+01 2.9428309563827124e+00 0.0000000000000000e+00 0 0 0
293 1 2.9450015932849187e+01 3.9035710345442922e+00 0.0000000000000000e+00 0 0 0
174 2 3.0016448325632503e+01 2.9428309563827124e+00 0.0000000000000000e+00 0 0 0
295 1 3.0583588209336192e+01 3.9006930006677281e+00 0.0000000000000000e+00 0 0 0
176 2 3.1149144488863918e+01 2.9428309563827124e+00 0.0000000000000000e+00 0 0 0
178 2 3.2281840652095333e+01 2.9428309563827124e+00 0.0000000000000000e+00 0 0 0
297 1 3.1717725602282865e+01 3.8981966550641109e+00 0.0000000000000000e+00 0 0 0
180 2 3.3414536815326748e+01 2.9428309563827124e+00 0.0000000000000000e+00 0 0 0
299 1 3.2852205966060787e+01 3.8960840552318086e+00 0.0000000000000000e+00 0 0 0
182 2 3.4547232978558164e+01 2.9428309563827124e+00 0.0000000000000000e+00 0 0 0
301 1 3.3986871756609560e+01 3.8943211313522514e+00 0.0000000000000000e+00 0 0 0
303 1 3.5121619210588975e+01 3.8928643486246104e+00 0.0000000000000000e+00 0 0 0
184 2 3.5679929141789579e+01 2.9428309563827124e+00 0.0000000000000000e+00 0 0 0
305 1 3.6256382250185858e+01 3.8916725824842877e+00 0.0000000000000000e+00 0 0 0
186 2 3.6812625305020994e+01 2.9428309563827124e+00 0.0000000000000000e+00 0 0 0
188 2 3.7945321468252409e+01 2.9428309563827124e+00 0.0000000000000000e+00 0 0 0
307 1 3.7391117497626681e+01 3.8907125048844100e+00 0.0000000000000000e+00 0 0 0
190 2 3.9078017631483824e+01 2.9428309563827124e+00 0.0000000000000000e+00 0 0 0
309 1 3.8525792329988896e+01 3.8899607555957751e+00 0.0000000000000000e+00 0 0 0
192 2 4.0210713794715240e+01 2.9428309563827124e+00 0.0000000000000000e+00 0 0 0
311 1 3.9660376224470674e+01 3.8894042322111306e+00 0.0000000000000000e+00 0 0 0
313 1 4.0794835241483753e+01 3.8890389617516945e+00 0.0000000000000000e+00 0 0 0
194 2 4.1343409957946655e+01 2.9428309563827124e+00 0.0000000000000000e+00 0 0 0
315 1 4.1929129670060334e+01 3.8888675423075902e+00 0.0000000000000000e+00 0 0 0
196 2 4.2476106121178070e+01 2.9428309563827124e+00 0.0000000000000000e+00 0 0 0
198 2 4.3608802284409485e+01 2.9428309563827124e+00 0.0000000000000000e+00 0 0 0
317 1 4.3063215104447657e+01 3.8888950113911749e+00 0.0000000000000000e+00 0 0 0
200 2 4.4741498447640900e+01 2.9428309563827124e+00 0.0000000000000000e+00 0 0 0
319 1 4.4197047026145313e+01 3.8891233775436529e+00 0.0000000000000000e+00 0 0 0
202 2 4.5874194610872316e+01 2.9428309563827124e+00 0.0000000000000000e+00 0 0 0
321 1 4.5330587979224035e+01 3.8895459836335964e+00 0.0000000000000000e+00 0 0 0
323 1 4.6463814928876928e+01 3.8901438295745603e+00 0.0000000000000000e+00 0 0 0
204 2 4.7006890774103731e+01 2.9428309563827124e+00 0.0000000000000000e+00 0 0 0
325 1 4.7596723594883684e+01 3.8908858487310169e+00 0.0000000000000000e+00 0 0 0
206 2 4.8139586937335146e+01 2.9428309563827124e+00 0.0000000000000000e+00 0 0 0
208 2 4.9272283100566561e+01 2.9428309563827124e+00 0.0000000000000000e+00 0 0 0
327 1 4.8729327709672070e+01 3.8917332852510054e+00 0.0000000000000000e+00 0 0 0
210 2 5.0404979263797976e+01 2.9428309563827124e+00 0.0000000000000000e+00 0 0 0
329 1 4.9861653824097822e+01 3.8926459789720584e+00 0.0000000000000000e+00 0 0 0
212 2 5.1537675427029392e+01 2.9428309563827124e+00 0.0000000000000000e+00 0 0 0
331 1 5.0993734325557639e+01 3.8935876585182303e+00 0.0000000000000000e+00 0 0 0
333 1 5.2125601355950977e+01 3.8945286363615255e+00 0.0000000000000000e+00 0 0 0
214 2 5.2670371590260807e+01 2.9428309563827124e+00 0.0000000000000000e+00 0 0 0
335 1 5.3257283003221836e+01 3.8954460113432750e+00 0.0000000000000000e+00 0 0 0
216 2 5.3803067753492222e+01 2.9428309563827124e+00 0.0000000000000000e+00 0 0 0
218 2 5.4935763916723637e+01 2.9428309563827124e+00 0.0000000000000000e+00 0 0 0
337 1 5.4388801841200888e+01 3.8963223491809855e+00 0.0000000000000000e+00 0 0 0
220 2 5.6068460079955052e+01 2.9428309563827124e+00 0.0000000000000000e+00 0 0 0
339 1 5.5520175236632006e+01 3.8971438196446107e+00 0.0000000000000000e+00 0 0 0
222 2 5.7201156243186468e+01 2.9428309563827124e+00 0.0000000000000000e+00 0 0 0
341 1 5.6651416727016262e+01 3.8978984410675919e+00 0.0000000000000000e+00 0 0 0
343 1 5.7782537889718860e+01 3.8985747805823658e+00 0.0000000000000000e+00 0 0 0
224 2 5.8333852406417883e+01 2.9428309563827124e+00 0.0000000000000000e+00 0 0 0
345 1 5.8913550257178777e+01 3.8991612767678157e+00 0.0000000000000000e+00 0 0 0
226 2 5.9466548569649298e+01 2.9428309563827124e+00 0.0000000000000000e+00 0 0 0
228 2 6.0599244732880713e+01 2.9428309563827124e+00 0.0000000000000000e+00 0 0 0
347 1 6.0044466910037215e+01 3.8996462450592104e+00 0.0000000000000000e+00 0 0 0
230 2 6.1731940896112128e+01 2.9428309563827124e+00 0.0000000000000000e+00 0 0 0
349 1 6.1175303421157082e+01 3.9000185216843302e+00 0.0000000000000000e+00 0 0 0
232 2 6.2864637059343544e+01 2.9428309563827124e+00 0.0000000000000000e+00 0 0 0
351 1 6.2306077895641842e+01 3.9002685595107818e+00 0.0000000000000000e+00 0 0 0
353 1 6.3436810013719239e+01 3.9003896351720639e+00 0.0000000000000000e+00 0 0 0
234 2 6.3997333222574959e+01 2.9428309563827124e+00 0.0000000000000000e+00 0 0 0
355 1 6.4567519231986864e+01 3.9003787458040469e+00 0.0000000000000000e+00 0 0 0
236 2 6.5130029385806381e+01 2.9428309563827124e+00 0.0000000000000000e+00 0 0 0
238 2 6.6262725549037782e+01 2.9428309563827124e+00 0.0000000000000000e+00 0 0 0
357 1 6.5698222548010335e+01 3.9002368480016569e+00 0.0000000000000000e+00 0 0 0
240 2 6.7395421712269211e+01 2.9428309563827124e+00 0.0000000000000000e+00 0 0 0
241 1 6.7959654873966002e+01 3.8995797939251213e+00 0.0000000000000000e+00 0 0 0
359 1 6.6828932358817283e+01 3.8999683193013057e+00 0.0000000000000000e+00 0 0 0
242 1 5.6100346891405484e-01 4.8566947401308544e+00 0.0000000000000000e+00 0 0 0
363 1 1.1232874609932610e+00 5.8142894503949787e+00 0.0000000000000000e+00 0 0 0
244 1 1.6899758796119522e+00 4.8555790112741084e+00 0.0000000000000000e+00 0 0 0
246 1 2.8189423642904456e+00 4.8542646215204917e+00 0.0000000000000000e+00 0 0 0
365 1 2.2506825104036388e+00 5.8124627860162219e+00 0.0000000000000000e+00 0 0 0
248 1 3.9478718007414089e+00 4.8527618907256382e+00 0.0000000000000000e+00 0 0 0
367 1 3.3780491111723627e+00 5.8103601549422450e+00 0.0000000000000000e+00 0 0 0
250 1 5.0767241743987856e+00 4.8510742857677753e+00 0.0000000000000000e+00 0 0 0
369 1 4.5053378469539069e+00 5.8079957884826339e+00 0.0000000000000000e+00 0 0 0
371 1 5.6324889949783321e+00 5.8053717963595934e+00 0.0000000000000000e+00 0 0 0
252 1 6.2054528302628729e+00 4.8491971206946731e+00 0.0000000000000000e+00 0 0 0
373 1 6.7594360616851050e+00 5.8024762998824064e+00 0.0000000000000000e+00 0 0 0
254 1 7.3340069360864169e+00 4.8471163755857480e+00 0.0000000000000000e+00 0 0 0
256 1 8.4623341967936518e+00 4.8448073838343708e+00 0.0000000000000000e+00 0 0 0
375 1 7.8861097094647317e+00 5.7992815615422986e+00 0.0000000000000000e+00 0 0 0
258 1 9.5903840153426074e+00 4.8422331290323033e+00 0.0000000000000000e+00 0 0 0
377 1 9.0124421825099024e+00 5.7957417411610823e+00 0.0000000000000000e+00 0 0 0
260 1 1.0718111564542184e+01 4.8393417875184568e+00 0.0000000000000000e+00 0 0 0
379 1 1.0138372548939099e+01 5.7917898493566700e+00 0.0000000000000000e+00 0 0 0
381 1 1.1263853449607794e+01 5.7873332321291198e+00 0.0000000000000000e+00 0 0 0
262 1 1.1845483788365161e+01 4.8360628762788105e+00 0.0000000000000000e+00 0 0 0
383 1 1.2388860698932470e+01 5.7822464545320269e+00 0.0000000000000000e+00 0 0 0
264 1 1.2972489512166794e+01 4.8323008177385072e+00 0.0000000000000000e+00 0 0 0
266 1 1.4099158249761665e+01 4.8279237948994327e+00 0.0000000000000000e+00 0 0 0
385 1 1.3513408104524348e+01 5.7763597766446866e+00 0.0000000000000000e+00 0 0 0
268 1 1.5225597226230427e+01 4.8227445721835691e+00 0.0000000000000000e+00 0 0 0
387 1 1.4637571117395316e+01 5.7694408993521202e+00 0.0000000000000000e+00 0 0 0
270 1 1.6352065896569936e+01 4.8164905652873671e+00 0.0000000000000000e+00 0 0 0
389 1 1.5761523249024707e+01 5.7611692566015069e+00 0.0000000000000000e+00 0 0 0
391 1 1.6885583792766319e+01 5.7511144045844498e+00 0.0000000000000000e+00 0 0 0
272 1 1.7479124815457357e+01 4.8087760572585427e+00 0.0000000000000000e+00 0 0 0
393 1 1.8010248749838428e+01 5.7387876492637346e+00 0.0000000000000000e+00 0 0 0
274 1 1.8607919117353610e+01 4.7991956322629408e+00 0.0000000000000000e+00 0 0 0
276 1 1.9740662201891613e+01 4.7883038387859447e+00 0.0000000000000000e+00 0 0 0
395 1 1.9136104246453019e+01 5.7240688584423873e+00 0.0000000000000000e+00 0 0 0
278 1 2.0881851286341725e+01 4.7843801954481755e+00 0.0000000000000000e+00 0 0 0
397 1 2.0263621664147426e+01 5.7091207658847578e+00 0.0000000000000000e+00 0 0 0
280 1 2.2087847003050470e+01 4.8532836815129841e+00 0.0000000000000000e+00 0 0 0
399 1 2.1396958515832644e+01 5.7031814010159216e+00 0.0000000000000000e+00 0 0 0
282 1 2.3231901523016912e+01 4.8732089567179573e+00 0.0000000000000000e+00 0 0 0
401 1 2.2663689388804631e+01 5.8267456956130488e+00 0.0000000000000000e+00 0 0 0
284 1 2.4365777135034993e+01 4.8824111629227263e+00 0.0000000000000000e+00 0 0 0
286 1 2.5495674179384274e+01 4.8842034196327422e+00 0.0000000000000000e+00 0 0 0
288 1 2.6624989344508997e+01 4.8805283404107076e+00 0.0000000000000000e+00 0 0 0
290 1 2.7755449282595254e+01 4.8740954748663228e+00 0.0000000000000000e+00 0 0 0
292 1 2.8887548465263773e+01 4.8670587585992839e+00 0.0000000000000000e+00 0 0 0
411 1 2.8329430621226173e+01 5.8343111439861888e+00 0.0000000000000000e+00 0 0 0
413 1 2.9462452769530586e+01 5.8233422999794389e+00 0.0000000000000000e+00 0 0 0
294 1 3.0021138533884354e+01 4.8605044126850059e+00 0.0000000000000000e+00 0 0 0
415 1 3.0597038248237890e+01 5.8136814884521879e+00 0.0000000000000000e+00 0 0 0
296 1 3.1155865231296978e+01 4.8548025369270906e+00 0.0000000000000000e+00 0 0 0
298 1 3.2291368780082742e+01 4.8499992732847188e+00 0.0000000000000000e+00 0 0 0
417 1 3.1732821075857775e+01 5.8055251523120326e+00 0.0000000000000000e+00 0 0 0
300 1 3.3427357691674878e+01 4.8460185798693480e+00 0.0000000000000000e+00 0 0 0
419 1 3.2869448595007093e+01 5.7987809246092183e+00 0.0000000000000000e+00 0 0 0
302 1 3.4563620134717624e+01 4.8427507465955637e+00 0.0000000000000000e+00 0 0 0
421 1 3.4006631087002589e+01 5.7932651645968685e+00 0.0000000000000000e+00 0 0 0
423 1 3.5144146776895546e+01 5.7887886233807428e+00 0.0000000000000000e+00 0 0 0
304 1 3.5700009452060506e+01 4.8400899718956989e+00 0.0000000000000000e+00 0 0 0
425 1 3.6281826856151049e+01 5.7851919111975265e+00 0.0000000000000000e+00 0 0 0
306 1 3.6836422760462135e+01 4.8379498509106353e+00 0.0000000000000000e+00 0 0 0
308 1 3.7972780930211819e+01 4.8362688534317799e+00 0.0000000000000000e+00 0 0 0
427 1 3.7419535055502038e+01 5.7823581507990687e+00 0.0000000000000000e+00 0 0 0
310 1 3.9109012819434639e+01 4.8350107970690015e+00 0.0000000000000000e+00 0 0 0
429 1 3.8557148812000754e+01 5.7802148931479485e+00 0.0000000000000000e+00 0 0 0
312 1 4.0245044564656759e+01 4.8341621518426123e+00 0.0000000000000000e+00 0 0 0
431 1 3.9694545149560007e+01 5.7787301397365995e+00 0.0000000000000000e+00 0 0 0