LAMMPS data file from restart file: timestep = 13, procs = 1

840 atoms

2 atom types

0.0000000000000000e+00 4.5307846529256608e+01 xlo xhi
-1.9220507115284495e-03 1.9218505391387513e+01 ylo yhi
-2.8317404080785380e-01 2.8317404080785380e-01 zlo zhi

Masses

1 1
2 1

Pair Coeffs

1 1 1
2 1 1

Atoms

1 2 0.0000000000000000e+00 0.0000000000000000e+00 0.0000000000000000e+00 0 0 0
2 2 5.6634808161570760e-01 9.8094365212757073e-01 0.0000000000000000e+00 0 0 0
3 2 1.1326961632314152e+00 0.0000000000000000e+00 0.0000000000000000e+00 0 0 0
4 2 1.6990442448471228e+00 9.8094365212757073e-01 0.0000000000000000e+00 0 0 0
5 2 2.2653923264628304e+00 0.0000000000000000e+00 0.0000000000000000e+00 0 0 0
6 2 2.8317404080785380e+00 9.8094365212757073e-01 0.0000000000000000e+00 0 0 0
7 2 3.3980884896942456e+00 0.0000000000000000e+00 0.0000000000000000e+00 0 0 0
8 2 3.9644365713099532e+00 9.8094365212757073e-01 0.0000000000000000e+00 0 0 0
9 2 4.5307846529256608e+00 0.0000000000000000e+00 0.0000000000000000e+00 0 0 0
10 2 5.0971327345413684e+00 9.8094365212757073e-01 0.0000000000000000e+00 0 0 0
11 2 5.6634808161570760e+00 0.0000000000000000e+00 0.0000000000000000e+00 0 0 0
12 2 6.2298288977727836e+00 9.8094365212757073e-01 0.0000000000000000e+00 0 0 0
13 2 6.7961769793884912e+00 0.0000000000000000e+00 0.0000000000000000e+00 0 0 0
14 2 7.3625250610041988e+00 9.8094365212757073e-01 0.0000000000000000e+00 0 0 0
15 2 7.9288731426199064e+00 0.0000000000000000e+00 0.0000000000000000e+00 0 0 0
16 2 8.4952212242356140e+00 9.8094365212757073e-01 0.0000000000000000e+00 0 0 0
17 2 9.0615693058513216e+00 0.0000000000000000e+00 0.0000000000000000e+00 0 0 0
18 2 9.6279173874670292e+00 9.8094365212757073e-01 0.0000000000000000e+00 0 0 0
19 2 1.0194265469082737e+01 0.0000000000000000e+00 0.0000000000000000e+00 0 0 0
20 2 1.0760613550698444e+01 9.8094365212757073e-01 0.0000000000000000e+00 0 0 0
21 2 1.1326961632314152e+01 0.0000000000000000e+00 0.0000000000000000e+00 0 0 0
22 2 1.1893309713929860e+01 9.8094365212757073e-01 0.0000000000000000e+00 0 0 0
23 2 1.2459657795545567e+01 0.0000000000000000e+00 0.0000000000000000e+00 0 0 0
24 2 1.3026005877161275e+01 9.8094365212757073e-01 0.0000000000000000e+00 0 0 0
25 2 1.3592353958776982e+01 0.0000000000000000e+00 0.0000000000000000e+00 0 0 0
26 2 1.4158702040392690e+01 9.8094365212757073e-01 0.0000000000000000e+00 0 0 0
27 2 1.4725050122008398e+01 0.0000000000000000e+00 0.0000000000000000e+00 0 0 0
28 2 1.5291398203624105e+01 9.8094365212757073e-01 0.0000000000000000e+00 0 0 0
29 2 1.5857746285239813e+01 0.0000000000000000e+00 0.0000000000000000e+00 0 0 0
30 2 1.6424094366855520e+01 9.8094365212757073e-01 0.0000000000000000e+00 0 0 0
31 2 1.6990442448471228e+01 0.0000000000000000e+00 0.0000000000000000e+00 0 0 0
32 2 1.7556790530086936e+01 9.8094365212757073e-01 0.0000000000000000e+00 0 0 0
33 2 1.8123138611702643e+01 0.0000000000000000e+00 0.0000000000000000e+00 0 0 0
34 2 1.8689486693318351e+01 9.8094365212757073e-01 0.0000000000000000e+00 0 0 0
35 2 1.9255834774934058e+01 0.0000000000000000e+00 0.0000000000000000e+00 0 0 0
36 2 1.9822182856549766e+01 9.8094365212757073e-01 0.0000000000000000e+00 0 0 0
37 2 2.0388530938165474e+01 0.0000000000000000e+00 0.0000000000000000e+00 0 0 0
38 2 2.0954879019781181e+01 9.8094365212757073e-01 0.0000000000000000e+00 0 0 0
39 2 2.1521227101396889e+01 0.0000000000000000e+00 0.0000000000000000e+00 0 0 0
40 2 2.2087575183012596e+01 9.8094365212757073e-01 0.0000000000000000e+00 0 0 0
41 2 2.2653923264628304e+01 0.0000000000000000e+00 0.0000000000000000e+00 0 0 0
42 2 2.3220271346244012e+01 9.8094365212757073e-01 0.0000000000000000e+00 0 0 0
43 2 2.3786619427859719e+01 0.0000000000000000e+00 0.0000000000000000e+00 0 0 0
44 2 2.4352967509475427e+01 9.8094365212757073e-01 0.0000000000000000e+00 0 0 0
45 2 2.4919315591091134e+01 0.0000000000000000e+00 0.0000000000000000e+00 0 0 0
46 2 2.5485663672706842e+01 9.8094365212757073e-01 0.0000000000000000e+00 0 0 0
47 2 2.6052011754322550e+01 0.0000000000000000e+00 0.0000000000000000e+00 0 0 0
48 2 2.6618359835938257e+01 9.8094365212757073e-01 0.0000000000000000e+00 0 0 0
49 2 2.7184707917553965e+01 0.0000000000000000e+00 0.0000000000000000e+00 0 0 0
50 2 2.7751055999169672e+01 9.8094365212757073e-01 0.0000000000000000e+00 0 0 0
51 2 2.8317404080785380e+01 0.0000000000000000e+00 0.0000000000000000e+00 0 0 0
52 2 2.8883752162401088e+01 9.8094365212757073e-01 0.0000000000000000e+00 0 0 0
53 2 2.9450100244016795e+01 0.0000000000000000e+00 0.0000000000000000e+00 0 0 0
54 2 3.0016448325632503e+01 9.8094365212757073e-01 0.0000000000000000e+00 0 0 0
55 2 3.0582796407248210e+01 0.0000000000000000e+00 0.0000000000000000e+00 0 0 0
56 2 3.1149144488863918e+01 9.8094365212757073e-01 0.0000000000000000e+00 0 0 0
57 2 3.1715492570479626e+01 0.0000000000000000e+00 0.0000000000000000e+00 0 0 0
58 2 3.2281840652095333e+01 9.8094365212757073e-01 0.0000000000000000e+00 0 0 0
59 2 3.2848188733711041e+01 0.0000000000000000e+00 0.0000000000000000e+00 0 0 0
60 2 3.3414536815326748e+01 9.8094365212757073e-01 0.0000000000000000e+00 0 0 0
61 2 3.3980884896942456e+01 0.0000000000000000e+00 0.0000000000000000e+00 0 0 0
62 2 3.4547232978558164e+01 9.8094365212757073e-01 0.0000000000000000e+00 0 0 0
63 2 3.5113581060173871e+01 0.0000000000000000e+00 0.0000000000000000e+00 0 0 0
64 2 3.5679929141789579e+01 9.8094365212757073e-01 0.0000000000000000e+00 0 0 0
65 2 3.6246277223405286e+01 0.0000000000000000e+00 0.0000000000000000e+00 0 0 0
66 2 3.6812625305020994e+01 9.8094365212757073e-01 0.0000000000000000e+00 0 0 0
67 2 3.7378973386636702e+01 0.0000000000000000e+00 0.0000000000000000e+00 0 0 0
68 2 3.7945321468252409e+01 9.8094365212757073e-01 0.0000000000000000e+00 0 0 0
69 2 3.8511669549868117e+01 0.0000000000000000e+00 0.0000000000000000e+00 0 0 0
70 2 3.9078017631483824e+01 9.8094365212757073e-01 0.0000000000000000e+00 0 0 0
71 2 3.9644365713099532e+01 0.0000000000000000e+00 0.0000000000000000e+00 0 0 0
72 2 4.0210713794715240e+01 9.8094365212757073e-01 0.0000000000000000e+00 0 0 0
73 2 4.0777061876330947e+01 0.0000000000000000e+00 0.0000000000000000e+00 0 0 0
74 2 4.1343409957946655e+01 9.8094365212757073e-01 0.0000000000000000e+00 0 0 0
75 2 4.1909758039562362e+01 0.0000000000000000e+00 0.0000000000000000e+00 0 0 0
76 2 4.2476106121178070e+01 9.8094365212757073e-01 0.0000000000000000e+00 0 0 0
77 2 4.3042454202793778e+01 0.0000000000000000e+00 0.0000000000000000e+00 0 0 0
78 2 4.3608802284409485e+01 9.8094365212757073e-01 0.0000000000000000e+00 0 0 0
79 2 4.4175150366025193e+01 0.0000000000000000e+00 0.0000000000000000e+00 0 0 0
80 2 4.4741498447640900e+01 9.8094365212757073e-01 0.0000000000000000e+00 0 0 0
81 2 0.0000000000000000e+00 1.9618873042551415e+00 0.0000000000000000e+00 0 0 0
83 2 1.1326961632314152e+00 1.9618873042551415e+00 0.0000000000000000e+00 0 0 0
82 1 5.6634808161570771e-01 2.9205104273906750e+00 0.0000000000000000e+00 0 0 0
85 2 2.2653923264628304e+00 1.9618873042551415e+00 0.0000000000000000e+00 0 0 0
84 1 1.6990442448471230e+00 2.9205104273906750e+00 0.0000000000000000e+00 0 0 0
87 2 3.3980884896942456e+00 1.9618873042551415e+00 0.0000000000000000e+00 0 0 0
86 1 2.8317404080785380e+00 2.9205104273906750e+00 0.0000000000000000e+00 0 0 0
88 1 3.9644365713099532e+00 2.9205104273906750e+00 0.0000000000000000e+00 0 0 0
89 2 4.5307846529256608e+00 1.9618873042551415e+00 0.0000000000000000e+00 0 0 0
90 1 5.0971327345413684e+00 2.9205104273906750e+00 0.0000000000000000e+00 0 0 0
91 2 5.6634808161570760e+00 1.9618873042551415e+00 0.0000000000000000e+00 0 0 0
93 2 6.7961769793884912e+00 1.9618873042551415e+00 0.0000000000000000e+00 0 0 0
92 1 6.2298288977727836e+00 2.9205104273906750e+00 0.0000000000000000e+00 0 0 0
95 2 7.9288731426199064e+00 1.9618873042551415e+00 0.0000000000000000e+00 0 0 0
94 1 7.3625250610041988e+00 2.9205104273906750e+00 0.0000000000000000e+00 0 0 0
97 2 9.0615693058513216e+00 1.9618873042551415e+00 0.0000000000000000e+00 0 0 0
96 1 8.4952212242356140e+00 2.9205104273906750e+00 0.0000000000000000e+00 0 0 0
98 1 9.6279173874670292e+00 2.9205104273906750e+00 0.0000000000000000e+00 0 0 0
99 2 1.0194265469082737e+01 1.9618873042551415e+00 0.0000000000000000e+00 0 0 0
100 1 1.0760613550698444e+01 2.9205104273906750e+00 0.0000000000000000e+00 0 0 0
101 2 1.1326961632314152e+01 1.9618873042551415e+00 0.0000000000000000e+00 0 0 0
103 2 1.2459657795545567e+01 1.9618873042551415e+00 0.0000000000000000e+00 0 0 0
102 1 1.1893309713929860e+01 2.9205104273906750e+00 0.0000000000000000e+00 0 0 0
105 2 1.3592353958776982e+01 1.9618873042551415e+00 0.0000000000000000e+00 0 0 0
104 1 1.3026005877161275e+01 2.9205104273906750e+00 0.0000000000000000e+00 0 0 0
107 2 1.4725050122008398e+01 1.9618873042551415e+00 0.0000000000000000e+00 0 0 0
106 1 1.4158702040392690e+01 2.9205104273906750e+00 0.0000000000000000e+00 0 0 0
108 1 1.5291398203624105e+01 2.9205104273906750e+00 0.0000000000000000e+00 0 0 0
109 2 1.5857746285239813e+01 1.9618873042551415e+00 0.0000000000000000e+00 0 0 0
110 1 1.6424094366855520e+01 2.9205104273906750e+00 0.0000000000000000e+00 0 0 0
111 2 1.6990442448471228e+01 1.9618873042551415e+00 0.0000000000000000e+00 0 0 0
113 2 1.8123138611702643e+01 1.9618873042551415e+00 0.0000000000000000e+00 0 0 0
112 1 1.7556790530086936e+01 2.9205104273906750e+00 0.0000000000000000e+00 0 0 0
115 2 1.9255834774934058e+01 1.9618873042551415e+00 0.0000000000000000e+00 0 0 0
114 1 1.8689486693318351e+01 2.9205104273906750e+00 0.0000000000000000e+00 0 0 0
117 2 2.0388530938165474e+01 1.9618873042551415e+00 0.0000000000000000e+00 0 0 0
116 1 1.9822182856549766e+01 2.9205104273906750e+00 0.0000000000000000e+00 0 0 0
118 1 2.0954879019781181e+01 2.9205104273906750e+00 0.0000000000000000e+00 0 0 0
119 2 2.1521227101396889e+01 1.9618873042551415e+00 0.0000000000000000e+00 0 0 0
120 1 2.2087575183012596e+01 2.9205104273906750e+00 0.0000000000000000e+00 0 0 0
121 2 2.2653923264628304e+01 1.9618873042551415e+00 0.0000000000000000e+00 0 0 0
123 2 2.3786619427859719e+01 1.9618873042551415e+00 0.0000000000000000e+00 0 0 0
122 1 2.3220271346244012e+01 2.9205104273906750e+00 0.0000000000000000e+00 0 0 0
125 2 2.4919315591091134e+01 1.9618873042551415e+00 0.0000000000000000e+00 0 0 0
124 1 2.4352967509475427e+01 2.9205104273906750e+00 0.0000000000000000e+00 0 0 0
127 2 2.6052011754322550e+01 1.9618873042551415e+00 0.0000000000000000e+00 0 0 0
126 1 2.5485663672706842e+01 2.9205104273906750e+00 0.0000000000000000e+00 0 0 0
128 1 2.6618359835938257e+01 2.9205104273906750e+00 0.0000000000000000e+00 0 0 0
129 2 2.7184707917553965e+01 1.9618873042551415e+00 0.0000000000000000e+00 0 0 0
130 1 2.7751055999169672e+01 2.9205104273906750e+00 0.0000000000000000e+00 0 0 0
131 2 2.8317404080785380e+01 1.9618873042551415e+00 0.0000000000000000e+00 0 0 0
133 2 2.9450100244016795e+01 1.9618873042551415e+00 0.0000000000000000e+00 0 0 0
132 1 2.8883752162401088e+01 2.9205104273906750e+00 0.0000000000000000e+00 0 0 0
135 2 3.0582796407248210e+01 1.9618873042551415e+00 0.0000000000000000e+00 0 0 0
134 1 3.0016448325632503e+01 2.9205104273906750e+00 0.0000000000000000e+00 0 0 0
137 2 3.1715492570479626e+01 1.9618873042551415e+00 0.0000000000000000e+00 0 0 0
136 1 3.1149144488863918e+01 2.9205104273906750e+00 0.0000000000000000e+00 0 0 0
138 1 3.2281840652095333e+01 2.9205104273906750e+00 0.0000000000000000e+00 0 0 0
139 2 3.2848188733711041e+01 1.9618873042551415e+00 0.0000000000000000e+00 0 0 0
140 1 3.3414536815326748e+01 2.9205104273906750e+00 0.0000000000000000e+00 0 0 0
141 2 3.3980884896942456e+01 1.9618873042551415e+00 0.0000000000000000e+00 0 0 0
143 2 3.5113581060173871e+01 1.9618873042551415e+00 0.0000000000000000e+00 0 0 0
142 1 3.4547232978558164e+01 2.9205104273906750e+00 0.0000000000000000e+00 0 0 0
145 2 3.6246277223405286e+01 1.9618873042551415e+00 0.0000000000000000e+00 0 0 0
144 1 3.5679929141789579e+01 2.9205104273906750e+00 0.0000000000000000e+00 0 0 0
147 2 3.7378973386636702e+01 1.9618873042551415e+00 0.0000000000000000e+00 0 0 0
146 1 3.6812625305020994e+01 2.9205104273906750e+00 0.0000000000000000e+00 0 0 0
148 1 3.7945321468252409e+01 2.9205104273906750e+00 0.0000000000000000e+00 0 0 0
149 2 3.8511669549868117e+01 1.9618873042551415e+00 0.0000000000000000e+00 0 0 0
150 1 3.9078017631483824e+01 2.9205104273906750e+00 0.0000000000000000e+00 0 0 0
151 2 3.9644365713099532e+01 1.9618873042551415e+00 0.0000000000000000e+00 0 0 0
153 2 4.0777061876330947e+01 1.9618873042551415e+00 0.0000000000000000e+00 0 0 0
152 1 4.0210713794715240e+01 2.9205104273906750e+00 0.0000000000000000e+00 0 0 0
155 2 4.1909758039562362e+01 1.9618873042551415e+00 0.0000000000000000e+00 0 0 0
154 1 4.1343409957946655e+01 2.9205104273906750e+00 0.0000000000000000e+00 0 0 0
157 2 4.3042454202793778e+01 1.9618873042551415e+00 0.0000000000000000e+00 0 0 0
156 1 4.2476106121178070e+01 2.9205104273906750e+00 0.0000000000000000e+00 0 0 0
158 1 4.3608802284409485e+01 2.9205104273906750e+00 0.0000000000000000e+00 0 0 0
159 2 4.4175150366025193e+01 1.9618873042551415e+00 0.0000000000000000e+00 0 0 0
160 1 4.4741498447640900e+01 2.9205104273906750e+00 0.0000000000000000e+00 0 0 0
161 1 0.0000000000000000e+00 3.8788623526606827e+00 0.0000000000000000e+00 0 0 0
163 1 1.1326961632314161e+00 3.8788623526606827e+00 0.0000000000000000e+00 0 0 0
165 1 2.2653923264628304e+00 3.8788623526606827e+00 0.0000000000000000e+00 0 0 0
167 1 3.3980884896942456e+00 3.8788623526606827e+00 0.0000000000000000e+00 0 0 0
169 1 4.5307846529256608e+00 3.8788623526606827e+00 0.0000000000000000e+00 0 0 0
171 1 5.6634808161570760e+00 3.8788623526606827e+00 0.0000000000000000e+00 0 0 0
173 1 6.7961769793884912e+00 3.8788623526606827e+00 0.0000000000000000e+00 0 0 0
175 1 7.9288731426199064e+00 3.8788623526606827e+00 0.0000000000000000e+00 0 0 0
177 1 9.0615693058513216e+00 3.8788623526606827e+00 0.0000000000000000e+00 0 0 0
179 1 1.0194265469082737e+01 3.8788623526606827e+00 0.0000000000000000e+00 0 0 0
181 1 1.1326961632314152e+01 3.8788623526606827e+00 0.0000000000000000e+00 0 0 0
183 1 1.2459657795545567e+01 3.8788623526606827e+00 0.0000000000000000e+00 0 0 0
185 1 1.3592353958776982e+01 3.8788623526606827e+00 0.0000000000000000e+00 0 0 0
187 1 1.4725050122008398e+01 3.8788623526606827e+00 0.0000000000000000e+00 0 0 0
189 1 1.5857746285239813e+01 3.8788623526606827e+00 0.0000000000000000e+00 0 0 0
191 1 1.6990442448471228e+01 3.8788623526606827e+00 0.0000000000000000e+00 0 0 0
193 1 1.8123138611702643e+01 3.8788623526606827e+00 0.0000000000000000e+00 0 0 0
195 1 1.9255834774934058e+01 3.8788623526606827e+00 0.0000000000000000e+00 0 0 0
197 1 2.0388530938165474e+01 3.8788623526606827e+00 0.0000000000000000e+00 0 0 0
199 1 2.1521227101396889e+01 3.8788623526606827e+00 0.0000000000000000e+00 0 0 0
201 1 2.2653923264628304e+01 3.8788623526606827e+00 0.0000000000000000e+00 0 0 0
203 1 2.3786619427859719e+01 3.8788623526606827e+00 0.0000000000000000e+00 0 0 0
205 1 2.4919315591091134e+01 3.8788623526606827e+00 0.0000000000000000e+00 0 0 0
207 1 2.6052011754322550e+01 3.8788623526606827e+00 0.0000000000000000e+00 0 0 0
209 1 2.7184707917553965e+01 3.8788623526606827e+00 0.0000000000000000e+00 0 0 0
211 1 2.8317404080785380e+01 3.8788623526606827e+00 0.0000000000000000e+00 0 0 0
213 1 2.9450100244016795e+01 3.8788623526606827e+00 0.0000000000000000e+00 0 0 0
215 1 3.0582796407248210e+01 3.8788623526606827e+00 0.0000000000000000e+00 0 0 0
217 1 3.1715492570479626e+01 3.8788623526606827e+00 0.0000000000000000e+00 0 0 0
219 1 3.2848188733711041e+01 3.8788623526606827e+00 0.0000000000000000e+00 0 0 0
221 1 3.3980884896942456e+01 3.8788623526606827e+00 0.0000000000000000e+00 0 0 0
223 1 3.5113581060173871e+01 3.8788623526606827e+00 0.0000000000000000e+00 0 0 0
225 1 3.6246277223405286e+01 3.8788623526606827e+00 0.0000000000000000e+00 0 0 0
227 1 3.7378973386636702e+01 3.8788623526606827e+00 0.0000000000000000e+00 0 0 0
229 1 3.8511669549868117e+01 3.8788623526606827e+00 0.0000000000000000e+00 0 0 0
231 1 3.9644365713099532e+01 3.8788623526606827e+00 0.0000000000000000e+00 0 0 0
233 1 4.0777061876330947e+01 3.8788623526606827e+00 0.0000000000000000e+00 0 0 0
235 1 4.1909758039562362e+01 3.8788623526606827e+00 0.0000000000000000e+00 0 0 0
237 1 4.3042454202793778e+01 3.8788623526606827e+00 0.0000000000000000e+00 0 0 0
239 1 4.4175150366025193e+01 3.8788623526606827e+00 0.0000000000000000e+00 0 0 0
162 1 5.6634808161570627e-01 4.8372108534023530e+00 0.0000000000000000e+00 0 0 0
241 1 9.5285726069578041e-16 5.7955593108806571e+00 0.0000000000000000e+00 0 0 0
243 1 1.1326961632314148e+00 5.7955593108806562e+00 0.0000000000000000e+00 0 0 0
164 1 1.6990442448471224e+00 4.8372108534023539e+00 0.0000000000000000e+00 0 0 0
245 1 2.2653923264628300e+00 5.7955593108806562e+00 0.0000000000000000e+00 0 0 0
166 1 2.8317404080785380e+00 4.8372108534023539e+00 0.0000000000000000e+00 0 0 0
168 1 3.9644365713099532e+00 4.8372108534023539e+00 0.0000000000000000e+00 0 0 0
247 1 3.3980884896942452e+00 5.7955593108806571e+00 0.0000000000000000e+00 0 0 0
170 1 5.0971327345413684e+00 4.8372108534023539e+00 0.0000000000000000e+00 0 0 0
249 1 4.5307846529256608e+00 5.7955593108806571e+00 0.0000000000000000e+00 0 0 0
172 1 6.2298288977727836e+00 4.8372108534023539e+00 0.0000000000000000e+00 0 0 0
251 1 5.6634808161570760e+00 5.7955593108806571e+00 0.0000000000000000e+00 0 0 0
253 1 6.7961769793884912e+00 5.7955593108806571e+00 0.0000000000000000e+00 0 0 0
174 1 7.3625250610041988e+00 4.8372108534023539e+00 0.0000000000000000e+00 0 0 0
255 1 7.9288731426199064e+00 5.7955593108806571e+00 0.0000000000000000e+00 0 0 0
176 1 8.4952212242356140e+00 4.8372108534023539e+00 0.0000000000000000e+00 0 0 0
178 1 9.6279173874670292e+00 4.8372108534023539e+00 0.0000000000000000e+00 0 0 0
257 1 9.0615693058513216e+00 5.7955593108806571e+00 0.0000000000000000e+00 0 0 0
180 1 1.0760613550698444e+01 4.8372108534023539e+00 0.0000000000000000e+00 0 0 0
259 1 1.0194265469082737e+01 5.7955593108806571e+00 0.0000000000000000e+00 0 0 0
182 1 1.1893309713929860e+01 4.8372108534023539e+00 0.0000000000000000e+00 0 0 0
261 1 1.1326961632314152e+01 5.7955593108806571e+00 0.0000000000000000e+00 0 0 0
263 1 1.2459657795545567e+01 5.7955593108806571e+00 0.0000000000000000e+00 0 0 0
184 1 1.3026005877161275e+01 4.8372108534023539e+00 0.0000000000000000e+00 0 0 0
265 1 1.3592353958776982e+01 5.7955593108806571e+00 0.0000000000000000e+00 0 0 0
186 1 1.4158702040392690e+01 4.8372108534023539e+00 0.0000000000000000e+00 0 0 0
188 1 1.5291398203624105e+01 4.8372108534023539e+00 0.0000000000000000e+00 0 0 0
267 1 1.4725050122008398e+01 5.7955593108806571e+00 0.0000000000000000e+00 0 0 0
190 1 1.6424094366855520e+01 4.8372108534023539e+00 0.0000000000000000e+00 0 0 0
269 1 1.5857746285239813e+01 5.7955593108806571e+00 0.0000000000000000e+00 0 0 0
192 1 1.7556790530086936e+01 4.8372108534023539e+00 0.0000000000000000e+00 0 0 0
271 1 1.6990442448471228e+01 5.7955593108806571e+00 0.0000000000000000e+00 0 0 0
273 1 1.8123138611702643e+01 5.7955593108806571e+00 0.0000000000000000e+00 0 0 0
194 1 1.8689486693318351e+01 4.8372108534023539e+00 0.0000000000000000e+00 0 0 0
275 1 1.9255834774934058e+01 5.7955593108806571e+00 0.0000000000000000e+00 0 0 0
196 1 1.9822182856549766e+01 4.8372108534023539e+00 0.0000000000000000e+00 0 0 0
198 1 2.0954879019781181e+01 4.8372108534023539e+00 0.0000000000000000e+00 0 0 0
277 1 2.0388530938165474e+01 5.7955593108806571e+00 0.0000000000000000e+00 0 0 0
200 1 2.2087575183012596e+01 4.8372108534023539e+00 0.0000000000000000e+00 0 0 0
279 1 2.1521227101396889e+01 5.7955593108806571e+00 0.0000000000000000e+00 0 0 0
202 1 2.3220271346244012e+01 4.8372108534023539e+00 0.0000000000000000e+00 0 0 0
281 1 2.2653923264628304e+01 5.7955593108806571e+00 0.0000000000000000e+00 0 0 0
283 1 2.3786619427859719e+01 5.7955593108806571e+00 0.0000000000000000e+00 0 0 0
204 1 2.4352967509475427e+01 4.8372108534023539e+00 0.0000000000000000e+00 0 0 0
285 1 2.4919315591091134e+01 5.7955593108806571e+00 0.0000000000000000e+00 0 0 0
206 1 2.5485663672706842e+01 4.8372108534023539e+00 0.0000000000000000e+00 0 0 0
208 1 2.6618359835938257e+01 4.8372108534023539e+00 0.0000000000000000e+00 0 0 0
287 1 2.6052011754322550e+01 5.7955593108806571e+00 0.0000000000000000e+00 0 0 0
210 1 2.7751055999169672e+01 4.8372108534023539e+00 0.0000000000000000e+00 0 0 0
289 1 2.7184707917553965e+01 5.7955593108806571e+00 0.0000000000000000e+00 0 0 0
212 1 2.8883752162401088e+01 4.8372108534023539e+00 0.0000000000000000e+00 0 0 0
291 1 2.8317404080785380e+01 5.7955593108806571e+00 0.0000000000000000e+00 0 0 0
293 1 2.9450100244016795e+01 5.7955593108806571e+00 0.0000000000000000e+00 0 0 0
214 1 3.0016448325632503e+01 4.8372108534023539e+00 0.0000000000000000e+00 0 0 0
295 1 3.0582796407248210e+01 5.7955593108806571e+00 0.0000000000000000e+00 0 0 0
216 1 3.1149144488863918e+01 4.8372108534023539e+00 0.0000000000000000e+00 0 0 0
218 1 3.2281840652095333e+01 4.8372108534023539e+00 0.0000000000000000e+00 0 0 0
297 1 3.1715492570479626e+01 5.7955593108806571e+00 0.0000000000000000e+00 0 0 0
220 1 3.3414536815326748e+01 4.8372108534023539e+00 0.0000000000000000e+00 0 0 0
299 1 3.2848188733711041e+01 5.7955593108806571e+00 0.0000000000000000e+00 0 0 0
222 1 3.4547232978558164e+01 4.8372108534023539e+00 0.0000000000000000e+00 0 0 0
301 1 3.3980884896942456e+01 5.7955593108806571e+00 0.0000000000000000e+00 0 0 0
303 1 3.5113581060173871e+01 5.7955593108806571e+00 0.0000000000000000e+00 0 0 0
224 1 3.5679929141789579e+01 4.8372108534023539e+00 0.0000000000000000e+00 0 0 0
305 1 3.6246277223405286e+01 5.7955593108806571e+00 0.0000000000000000e+00 0 0 0
226 1 3.6812625305020994e+01 4.8372108534023539e+00 0.0000000000000000e+00 0 0 0
228 1 3.7945321468252409e+01 4.8372108534023539e+00 0.0000000000000000e+00 0 0 0
307 1 3.7378973386636702e+01 5.7955593108806571e+00 0.0000000000000000e+00 0 0 0
230 1 3.9078017631483824e+01 4.8372108534023539e+00 0.0000000000000000e+00 0 0 0
309 1 3.8511669549868117e+01 5.7955593108806571e+00 0.0000000000000000e+00 0 0 0
232 1 4.0210713794715240e+01 4.8372108534023539e+00 0.0000000000000000e+00 0 0 0
311 1 3.9644365713099532e+01 5.7955593108806571e+00 0.0000000000000000e+00 0 0 0
313 1 4.0777061876330947e+01 5.7955593108806571e+00 0.0000000000000000e+00 0 0 0
234 1 4.1343409957946655e+01 4.8372108534023539e+00 0.0000000000000000e+00 0 0 0
315 1 4.1909758039562362e+01 5.7955593108806571e+00 0.0000000000000000e+00 0 0 0
236 1 4.2476106121178070e+01 4.8372108534023539e+00 0.0000000000000000e+00 0 0 0
238 1 4.3608802284409485e+01 4.8372108534023539e+00 0.0000000000000000e+00 0 0 0
317 1 4.3042454202793778e+01 5.7955593108806571e+00 0.0000000000000000e+00 0 0 0
240 1 4.4741498447640900e+01 4.8372108534023539e+00 0.0000000000000000e+00 0 0 0
319 1 4.4175150366025193e+01 5.7955593108806571e+00 0.0000000000000000e+00 0 0 0
242 1 5.6634808161570727e-01 6.7539077678123940e+00 0.0000000000000000e+00 0 0 0
244 1 1.6990442448471226e+00 6.7539077678123931e+00 0.0000000000000000e+00 0 0 0
246 1 2.8317404080785376e+00 6.7539077678123940e+00 0.0000000000000000e+00 0 0 0
248 1 3.9644365713099528e+00 6.7539077678123940e+00 0.0000000000000000e+00 0 0 0
250 1 5.0971327345413684e+00 6.7539077678123940e+00 0.0000000000000000e+00 0 0 0
252 1 6.2298288977727836e+00 6.7539077678123940e+00 0.0000000000000000e+00 0 0 0
254 1 7.3625250610041988e+00 6.7539077678123940e+00 0.0000000000000000e+00 0 0 0
256 1 8.4952212242356140e+00 6.7539077678123940e+00 0.0000000000000000e+00 0 0 0
258 1 9.6279173874670292e+00 6.7539077678123940e+00 0.0000000000000000e+00 0 0 0
260 1 1.0760613550698444e+01 6.7539077678123940e+00 0.0000000000000000e+00 0 0 0
262 1 1.1893309713929860e+01 6.7539077678123940e+00 0.0000000000000000e+00 0 0 0
264 1 1.3026005877161275e+01 6.7539077678123940e+00 0.0000000000000000e+00 0 0 0
266 1 1.4158702040392690e+01 6.7539077678123940e+00 0.0000000000000000e+00 0 0 0
268 1 1.5291398203624105e+01 6.7539077678123940e+00 0.0000000000000000e+00 0 0 0
270 1 1.6424094366855520e+01 6.7539077678123940e+00 0.0000000000000000e+00 0 0 0
272 1 1.7556790530086936e+01 6.7539077678123940e+00 0.0000000000000000e+00 0 0 0
274 1 1.8689486693318351e+01 6.7539077678123940e+00 0.0000000000000000e+00 0 0 0
276 1 1.9822182856549766e+01 6.7539077678123940e+00 0.0000000000000000e+00 0 0 0
278 1 2.0954879019781181e+01 6.7539077678123940e+00 0.0000000000000000e+00 0 0 0
280 1 2.2087575183012596e+01 6.7539077678123940e+00 0.0000000000000000e+00 0 0 0
282 1 2.3220271346244012e+01 6.7539077678123940e+00 0.0000000000000000e+00 0 0 0
284 1 2.4352967509475427e+01 6.7539077678123940e+00 0.0000000000000000e+00 0 0 0
286 1 2.5485663672706842e+01 6.7539077678123940e+00 0.0000000000000000e+00 0 0 0
288 1 2.6618359835938257e+01 6.7539077678123940e+00 0.0000000000000000e+00 0 0 0
290 1 2.7751055999169672e+01 6.7539077678123940e+00 0.0000000000000000e+00 0 0 0
292 1 2.8883752162401088e+01 6.7539077678123940e+00 0.0000000000000000e+00 0 0 0
294 1 3.0016448325632503e+01 6.7539077678123940e+00 0.0000000000000000e+00 0 0 0
296 1 3.1149144488863918e+01 6.7539077678123940e+00 0.0000000000000000e+00 0 0 0
298 1 3.2281840652095333e+01 6.7539077678123940e+00 0.0000000000000000e+00 0 0 0
300 1 3.3414536815326748e+01 6.7539077678123940e+00 0.0000000000000000e+00 0 0 0
302 1 3.4547232978558164e+01 6.7539077678123940e+00 0.0000000000000000e+00 0 0 0
304 1 3.5679929141789579e+01 6.7539077678123940e+00 0.0000000000000000e+00 0 0 0
306 1 3.6812625305020994e+01 6.7539077678123940e+00 0.0000000000000000e+00 0 0 0
308 1 3.7945321468252409e+01 6.7539077678123940e+00 0.0000000000000000e+00 0 0 0
310 1 3.9078017631483824e+01 6.7539077678123940e+00 0.0000000000000000e+00 0 0 0
312 1 4.0210713794715240e+01 6.7539077678123940e+00 0.0000000000000000e+00 0 0 0
314 1 4.1343409957946655e+01 6.7539077678123940e+00 0.0000000000000000e+00 0 0 0
316 1 4.2476106121178070e+01 6.7539077678123940e+00 0.0000000000000000e+00 0 0 0
318 1 4.3608802284409485e+01 6.7539077678123940e+00 0.0000000000000000e+00 0 0 0
320 1 4.4741498447640900e+01 6.7539077678123931e+00 0.0000000000000000e+00 0 0 0
321 1 0.0000000000000000e+00 7.7122562247372253e+00 0.0000000000000000e+00 0 0 0
323 1 1.1326961632314156e+00 7.7122562247372253e+00 0.0000000000000000e+00 0 0 0
322 1 5.6634808161570693e-01 8.6706046816619686e+00 0.0000000000000000e+00 0 0 0
325 1 2.2653923264628304e+00 7.7122562247372253e+00 0.0000000000000000e+00 0 0 0
324 1 1.6990442448471224e+00 8.6706046816619704e+00 0.0000000000000000e+00 0 0 0
326 1 2.8317404080785376e+00 8.6706046816619704e+00 0.0000000000000000e+00 0 0 0
327 1 3.3980884896942456e+00 7.7122562247372253e+00 0.0000000000000000e+00 0 0 0
328 1 3.9644365713099528e+00 8.6706046816619704e+00 0.0000000000000000e+00 0 0 0
329 1 4.5307846529256608e+00 7.7122562247372253e+00 0.0000000000000000e+00 0 0 0
330 1 5.0971327345413684e+00 8.6706046816619704e+00 0.0000000000000000e+00 0 0 0
331 1 5.6634808161570760e+00 7.7122562247372253e+00 0.0000000000000000e+00 0 0 0
333 1 6.7961769793884912e+00 7.7122562247372253e+00 0.0000000000000000e+00 0 0 0
332 1 6.2298288977727836e+00 8.6706046816619704e+00 0.0000000000000000e+00 0 0 0
335 1 7.9288731426199064e+00 7.7122562247372253e+00 0.0000000000000000e+00 0 0 0
334 1 7.3625250610041988e+00 8.6706046816619704e+00 0.0000000000000000e+00 0 0 0
337 1 9.0615693058513216e+00 7.7122562247372253e+00 0.0000000000000000e+00 0 0 0
336 1 8.4952212242356140e+00 8.6706046816619704e+00 0.0000000000000000e+00 0 0 0
338 1 9.6279173874670292e+00 8.6706046816619704e+00 0.0000000000000000e+00 0 0 0
339 1 1.0194265469082737e+01 7.7122562247372253e+00 0.0000000000000000e+00 0 0 0
340 1 1.0760613550698444e+01 8.6706046816619704e+00 0.0000000000000000e+00 0 0 0
341 1 1.1326961632314152e+01 7.7122562247372253e+00 0.0000000000000000e+00 0 0 0
343 1 1.2459657795545567e+01 7.7122562247372253e+00 0.0000000000000000e+00 0 0 0
342 1 1.1893309713929860e+01 8.6706046816619704e+00 0.0000000000000000e+00 0 0 0
345 1 1.3592353958776982e+01 7.7122562247372253e+00 0.0000000000000000e+00 0 0 0
344 1 1.3026005877161275e+01 8.6706046816619704e+00 0.0000000000000000e+00 0 0 0
347 1 1.4725050122008398e+01 7.7122562247372253e+00 0.0000000000000000e+00 0 0 0
346 1 1.4158702040392690e+01 8.6706046816619704e+00 0.0000000000000000e+00 0 0 0
348 1 1.5291398203624105e+01 8.6706046816619704e+00 0.0000000000000000e+00 0 0 0
349 1 1.5857746285239813e+01 7.7122562247372253e+00 0.0000000000000000e+00 0 0 0
350 1 1.6424094366855520e+01 8.6706046816619704e+00 0.0000000000000000e+00 0 0 0
351 1 1.6990442448471228e+01 7.7122562247372253e+00 0.0000000000000000e+00 0 0 0
353 1 1.8123138611702643e+01 7.7122562247372253e+00 0.0000000000000000e+00 0 0 0
352 1 1.7556790530086936e+01 8.6706046816619704e+00 0.0000000000000000e+00 0 0 0
355 1 1.9255834774934058e+01 7.7122562247372253e+00 0.0000000000000000e+00 0 0 0
354 1 1.8689486693318351e+01 8.6706046816619704e+00 0.0000000000000000e+00 0 0 0
357 1 2.0388530938165474e+01 7.7122562247372253e+00 0.0000000000000000e+00 0 0 0
356 1 1.9822182856549766e+01 8.6706046816619704e+00 0.0000000000000000e+00 0 0 0
358 1 2.0954879019781181e+01 8.6706046816619704e+00 0.0000000000000000e+00 0 0 0
359 1 2.1521227101396889e+01 7.7122562247372253e+00 0.0000000000000000e+00 0 0 0
360 1 2.2087575183012596e+01 8.6706046816619704e+00 0.0000000000000000e+00 0 0 0
361 1 2.2653923264628304e+01 7.7122562247372253e+00 0.0000000000000000e+00 0 0 0
363 1 2.3786619427859719e+01 7.7122562247372253e+00 0.0000000000000000e+00 0 0 0
362 1 2.3220271346244012e+01 8.6706046816619704e+00 0.0000000000000000e+00 0 0 0
365 1 2.4919315591091134e+01 7.7122562247372253e+00 0.0000000000000000e+00 0 0 0
364 1 2.4352967509475427e+01 8.6706046816619704e+00 0.0000000000000000e+00 0 0 0
367 1 2.6052011754322550e+01 7.7122562247372253e+00 0.0000000000000000e+00 0 0 0
366 1 2.5485663672706842e+01 8.6706046816619704e+00 0.0000000000000000e+00 0 0 0