ITEM: TIMESTEP
0
ITEM: NUMBER OF ATOMS
840
ITEM: BOX BOUNDS pp ss pp
0 45.3078
-0.00192204 19.2185
-0.283174 0.283174
ITEM: ATOMS id type fx fy fz 
1 2 0 0 0 
2 2 0 0 0 
3 2 0 0 0 
4 2 0 0 0 
5 2 0 0 0 
6 2 0 0 0 
7 2 0 0 0 
8 2 0 0 0 
9 2 0 0 0 
10 2 0 0 0 
11 2 0 0 0 
12 2 0 0 0 
13 2 0 0 0 
14 2 0 0 0 
15 2 0 0 0 
16 2 0 0 0 
17 2 0 0 0 
18 2 0 0 0 
19 2 0 0 0 
20 2 0 0 0 
21 2 0 0 0 
22 2 0 0 0 
23 2 0 0 0 
24 2 0 0 0 
25 2 0 0 0 
26 2 0 0 0 
27 2 0 0 0 
28 2 0 0 0 
29 2 0 0 0 
30 2 0 0 0 
31 2 0 0 0 
32 2 0 0 0 
33 2 0 0 0 
34 2 0 0 0 
35 2 0 0 0 
36 2 0 0 0 
37 2 0 0 0 
38 2 0 0 0 
39 2 0 0 0 
40 2 0 0 0 
41 2 0 0 0 
42 2 0 0 0 
43 2 0 0 0 
44 2 0 0 0 
45 2 0 0 0 
46 2 0 0 0 
47 2 0 0 0 
48 2 0 0 0 
49 2 0 0 0 
50 2 0 0 0 
51 2 0 0 0 
52 2 0 0 0 
53 2 0 0 0 
54 2 0 0 0 
55 2 0 0 0 
56 2 0 0 0 
57 2 0 0 0 
58 2 0 0 0 
59 2 0 0 0 
60 2 0 0 0 
61 2 0 0 0 
62 2 0 0 0 
63 2 0 0 0 
64 2 0 0 0 
65 2 0 0 0 
66 2 0 0 0 
67 2 0 0 0 
68 2 0 0 0 
69 2 0 0 0 
70 2 0 0 0 
71 2 0 0 0 
72 2 0 0 0 
73 2 0 0 0 
74 2 0 0 0 
75 2 0 0 0 
76 2 0 0 0 
77 2 0 0 0 
78 2 0 0 0 
79 2 0 0 0 
80 2 0 0 0 
81 2 0 0 0 
82 1 -1.84864e-009 5.50943e-010 0 
83 2 0 0 0 
84 1 -5.08757e-010 5.51358e-010 0 
85 2 0 0 0 
86 1 -3.41723e-010 5.51392e-010 0 
87 2 0 0 0 
88 1 3.30014e-014 5.52761e-010 0 
89 2 0 0 0 
90 1 3.42733e-010 5.51397e-010 0 
91 2 0 0 0 
92 1 3.29522e-010 5.51392e-010 0 
93 2 0 0 0 
94 1 7.99089e-010 5.51302e-010 0 
95 2 0 0 0 
96 1 -8.2076e-010 5.51292e-010 0 
97 2 0 0 0 
98 1 3.73812e-010 5.5414e-010 0 
99 2 0 0 0 
100 1 -1.36442e-009 5.47599e-010 0 
101 2 0 0 0 
102 1 4.5717e-009 5.4691e-010 0 
103 2 0 0 0 
104 1 -7.99142e-009 5.60574e-010 0 
105 2 0 0 0 
106 1 1.08084e-010 5.47884e-010 0 
107 2 0 0 0 
108 1 4.56478e-009 5.469e-010 0 
109 2 0 0 0 
110 1 -7.99165e-009 5.60582e-010 0 
111 2 0 0 0 
112 1 1.31863e-010 5.47892e-010 0 
113 2 0 0 0 
114 1 -1.31861e-010 5.47892e-010 0 
115 2 0 0 0 
116 1 7.99159e-009 5.60574e-010 0 
117 2 0 0 0 
118 1 -4.56486e-009 5.46919e-010 0 
119 2 0 0 0 
120 1 -1.07739e-010 5.47892e-010 0 
121 2 0 0 0 
122 1 7.99142e-009 5.60574e-010 0 
123 2 0 0 0 
124 1 -4.56498e-009 5.46917e-010 0 
125 2 0 0 0 
126 1 -1.07857e-010 5.47894e-010 0 
127 2 0 0 0 
128 1 7.99126e-009 5.60574e-010 0 
129 2 0 0 0 
130 1 -4.56441e-009 5.46917e-010 0 
131 2 0 0 0 
132 1 -1.67769e-013 5.47907e-010 0 
133 2 0 0 0 
134 1 4.56498e-009 5.46917e-010 0 
135 2 0 0 0 
136 1 -7.99143e-009 5.60574e-010 0 
137 2 0 0 0 
138 1 1.07907e-010 5.47892e-010 0 
139 2 0 0 0 
140 1 4.5643e-009 5.46913e-010 0 
141 2 0 0 0 
142 1 -7.99137e-009 5.60572e-010 0 
143 2 0 0 0 
144 1 1.07451e-010 5.47888e-010 0 
145 2 0 0 0 
146 1 4.56544e-009 5.46913e-010 0 
147 2 0 0 0 
148 1 -7.99171e-009 5.60572e-010 0 
149 2 0 0 0 
150 1 1.31007e-010 5.47888e-010 0 
151 2 0 0 0 
152 1 -1.31005e-010 5.47888e-010 0 
153 2 0 0 0 
154 1 7.99137e-009 5.60572e-010 0 
155 2 0 0 0 
156 1 -4.56429e-009 5.46913e-010 0 
157 2 0 0 0 
158 1 -5.46989e-011 5.47896e-010 0 
159 2 0 0 0 
160 1 5.23066e-009 5.54913e-010 0 
161 1 -2.63773e-009 -1.73299e-010 0 
163 1 2.51862e-010 -1.73367e-010 0 
165 1 3.34535e-010 -1.73369e-010 0 
167 1 7.99848e-010 -1.7337e-010 0 
169 1 -7.99919e-010 -1.73374e-010 0 
171 1 -3.302e-010 -1.73372e-010 0 
173 1 -3.4344e-010 -1.73372e-010 0 
175 1 -4.64615e-012 -1.73359e-010 0 
177 1 1.28488e-009 -1.73377e-010 0 
179 1 -3.29444e-009 -1.73372e-010 0 
181 1 -8.73512e-011 -1.73417e-010 0 
183 1 7.99837e-009 -1.73259e-010 0 
185 1 -4.56441e-009 -1.7343e-010 0 
187 1 -1.0821e-010 -1.73417e-010 0 
189 1 7.9986e-009 -1.73259e-010 0 
191 1 -4.56463e-009 -1.73433e-010 0 
193 1 4.78784e-016 -1.73417e-010 0 
195 1 4.56455e-009 -1.73433e-010 0 
197 1 -7.99822e-009 -1.73258e-010 0 
199 1 1.07774e-010 -1.7342e-010 0 
201 1 4.56443e-009 -1.7343e-010 0 
203 1 -7.99838e-009 -1.73259e-010 0 
205 1 1.08343e-010 -1.73421e-010 0 
207 1 4.56426e-009 -1.7343e-010 0 
209 1 -7.9985e-009 -1.73262e-010 0 
211 1 1.31779e-010 -1.73417e-010 0 
213 1 -1.31897e-010 -1.73421e-010 0 
215 1 7.99838e-009 -1.73258e-010 0 
217 1 -4.56443e-009 -1.7343e-010 0 
219 1 -1.07653e-010 -1.7342e-010 0 
221 1 7.99817e-009 -1.73262e-010 0 
223 1 -4.56386e-009 -1.73433e-010 0 
225 1 -1.08062e-010 -1.73424e-010 0 
227 1 7.99793e-009 -1.73259e-010 0 
229 1 -4.56385e-009 -1.73433e-010 0 
231 1 2.77556e-017 -1.73423e-010 0 
233 1 4.56386e-009 -1.73433e-010 0 
235 1 -7.99817e-009 -1.73262e-010 0 
237 1 1.17709e-010 -1.7342e-010 0 
239 1 2.56004e-009 -1.73427e-010 0 
162 1 -1.84861e-009 3.35031e-010 0 
241 1 -2.63785e-009 -3.47752e-010 0 
243 1 2.51913e-010 -3.47791e-010 0 
164 1 -5.09467e-010 3.3507e-010 0 
245 1 3.34541e-010 -3.47788e-010 0 
166 1 -3.42453e-010 3.35065e-010 0 
168 1 3.11418e-014 3.35059e-010 0 
247 1 7.99854e-010 -3.47788e-010 0 
170 1 3.43461e-010 3.35064e-010 0 
249 1 -7.99924e-010 -3.47788e-010 0 
172 1 3.30246e-010 3.35068e-010 0 
251 1 -3.30209e-010 -3.47786e-010 0 
253 1 -3.43449e-010 -3.47786e-010 0 
174 1 7.99775e-010 3.35071e-010 0 
255 1 -4.64615e-012 -3.47782e-010 0 
176 1 -8.2145e-010 3.35068e-010 0 
178 1 3.74549e-010 3.35061e-010 0 
257 1 1.28489e-009 -3.47789e-010 0 
180 1 -1.36427e-009 3.35062e-010 0 
259 1 -3.29446e-009 -3.4778e-010 0 
261 1 -8.73696e-011 -3.47779e-010 0 
182 1 4.57127e-009 3.35062e-010 0 
263 1 7.99844e-009 -3.4778e-010 0 
184 1 -7.99831e-009 3.35055e-010 0 
265 1 -4.56439e-009 -3.47779e-010 0 
186 1 1.08118e-010 3.35062e-010 0 
188 1 4.56434e-009 3.35077e-010 0 
267 1 -1.08192e-010 -3.47779e-010 0 
190 1 -7.99854e-009 3.35057e-010 0 
269 1 7.99868e-009 -3.47779e-010 0 
192 1 1.31903e-010 3.35051e-010 0 
271 1 -4.56463e-009 -3.4778e-010 0 
273 1 4.71845e-016 -3.47779e-010 0 
194 1 -1.31901e-010 3.35051e-010 0 
196 1 7.99847e-009 3.35055e-010 0 
275 1 4.56454e-009 -3.4778e-010 0 
198 1 -4.56442e-009 3.35046e-010 0 
277 1 -7.99831e-009 -3.4778e-010 0 
200 1 -1.07775e-010 3.35051e-010 0 
279 1 1.07777e-010 -3.4778e-010 0 
281 1 4.56442e-009 -3.47779e-010 0 
202 1 7.99831e-009 3.35055e-010 0 
283 1 -7.99848e-009 -3.4778e-010 0 
204 1 -4.56454e-009 3.35051e-010 0 
206 1 -1.07895e-010 3.35047e-010 0 
285 1 1.08341e-010 -3.4778e-010 0 
208 1 7.99815e-009 3.35056e-010 0 
287 1 4.56426e-009 -3.47779e-010 0 
210 1 -4.56397e-009 3.35051e-010 0 
289 1 -7.99859e-009 -3.47782e-010 0 
212 1 -1.67748e-013 3.35047e-010 0 
291 1 1.3178e-010 -3.47779e-010 0 
293 1 -1.31895e-010 -3.4778e-010 0 
214 1 4.56454e-009 3.35051e-010 0 
295 1 7.99848e-009 -3.4778e-010 0 
216 1 -7.99831e-009 3.35055e-010 0 
218 1 1.07943e-010 3.35051e-010 0 
297 1 -4.56443e-009 -3.47779e-010 0 
220 1 4.56385e-009 3.35063e-010 0 
299 1 -1.07643e-010 -3.47783e-010 0 
301 1 7.99826e-009 -3.47782e-010 0 
222 1 -7.99826e-009 3.3506e-010 0 
303 1 -4.56384e-009 -3.47783e-010 0 
224 1 1.07482e-010 3.35063e-010 0 
226 1 4.565e-009 3.35063e-010 0 
305 1 -1.08062e-010 -3.47782e-010 0 
228 1 -7.9986e-009 3.3506e-010 0 
307 1 7.99801e-009 -3.47783e-010 0 
230 1 1.31038e-010 3.35063e-010 0 
309 1 -4.56384e-009 -3.47783e-010 0 
232 1 -1.31036e-010 3.35063e-010 0 
311 1 2.77556e-017 -3.47782e-010 0 
313 1 4.56384e-009 -3.47783e-010 0 
234 1 7.99826e-009 3.3506e-010 0 
315 1 -7.99826e-009 -3.47782e-010 0 
236 1 -4.56385e-009 3.35063e-010 0 
238 1 -5.47205e-011 3.35056e-010 0 
317 1 1.17699e-010 -3.47783e-010 0 
240 1 5.23448e-009 3.35064e-010 0 
319 1 2.56005e-009 -3.47783e-010 0 
242 1 -1.84862e-009 6.90387e-010 0 
244 1 -5.09466e-010 6.90361e-010 0 
246 1 -3.42456e-010 6.90363e-010 0 
248 1 2.4758e-014 6.9036e-010 0 
250 1 3.43462e-010 6.90355e-010 0 
252 1 3.30248e-010 6.90356e-010 0 
254 1 7.99778e-010 6.9036e-010 0 
256 1 -8.21453e-010 6.90356e-010 0 
258 1 3.74546e-010 6.90356e-010 0 
260 1 -1.36427e-009 6.90355e-010 0 
262 1 4.57127e-009 6.90355e-010 0 
264 1 -7.99831e-009 6.90358e-010 0 
266 1 1.08115e-010 6.90355e-010 0 
268 1 4.56434e-009 6.90346e-010 0 
270 1 -7.99854e-009 6.90356e-010 0 
272 1 1.31905e-010 6.90358e-010 0 
274 1 -1.31903e-010 6.90358e-010 0 
276 1 7.99847e-009 6.90358e-010 0 
278 1 -4.56442e-009 6.90364e-010 0 
280 1 -1.07772e-010 6.90358e-010 0 
282 1 7.99831e-009 6.90358e-010 0 
284 1 -4.56454e-009 6.90358e-010 0 
286 1 -1.07895e-010 6.90364e-010 0 
288 1 7.99815e-009 6.90358e-010 0 
290 1 -4.56397e-009 6.90358e-010 0 
292 1 -1.67727e-013 6.90364e-010 0 
294 1 4.56454e-009 6.90358e-010 0 
296 1 -7.99831e-009 6.90358e-010 0 
298 1 1.0794e-010 6.90358e-010 0 
300 1 4.56385e-009 6.90355e-010 0 
302 1 -7.99826e-009 6.90352e-010 0 
304 1 1.07477e-010 6.90355e-010 0 
306 1 4.56501e-009 6.90355e-010 0 
308 1 -7.9986e-009 6.90352e-010 0 
310 1 1.31033e-010 6.90355e-010 0 
312 1 -1.31031e-010 6.90355e-010 0 
314 1 7.99826e-009 6.90352e-010 0 
316 1 -4.56384e-009 6.90355e-010 0 
318 1 -5.47206e-011 6.90352e-010 0 
320 1 5.2345e-009 6.90323e-010 0 
321 1 -2.63776e-009 -9.88332e-010 0 
322 1 -1.84862e-009 1.0129e-009 0 
323 1 2.51872e-010 -9.88323e-010 0 
324 1 -5.09467e-010 1.01291e-009 0 
325 1 3.34545e-010 -9.88327e-010 0 
326 1 -3.42453e-010 1.0129e-009 0 
327 1 7.99858e-010 -9.88327e-010 0 
328 1 2.75335e-014 1.0129e-009 0 
329 1 -7.99923e-010 -9.88332e-010 0 
330 1 3.43469e-010 1.0129e-009 0 
331 1 -3.30209e-010 -9.88322e-010 0 
332 1 3.30249e-010 1.0129e-009 0 
333 1 -3.43449e-010 -9.88322e-010 0 
334 1 7.99771e-010 1.01291e-009 0 
335 1 -4.64143e-012 -9.88325e-010 0 
336 1 -8.21454e-010 1.0129e-009 0 
337 1 1.28488e-009 -9.88333e-010 0 
338 1 3.74552e-010 1.01291e-009 0 
339 1 -3.29446e-009 -9.8833e-010 0 
340 1 -1.36428e-009 1.01291e-009 0 
341 1 -8.73579e-011 -9.88335e-010 0 
342 1 4.57126e-009 1.01291e-009 0 
343 1 7.99845e-009 -9.88327e-010 0 
344 1 -7.99831e-009 1.0129e-009 0 
345 1 -4.5644e-009 -9.88334e-010 0 
346 1 1.08123e-010 1.01291e-009 0 
347 1 -1.08204e-010 -9.88335e-010 0 
348 1 4.56434e-009 1.01291e-009 0 
349 1 7.99868e-009 -9.88335e-010 0 
350 1 -7.99853e-009 1.01291e-009 0 
351 1 -4.56463e-009 -9.88324e-010 0 
352 1 1.31901e-010 1.0129e-009 0 
353 1 3.88578e-016 -9.88333e-010 0 
354 1 -1.319e-010 1.0129e-009 0 
355 1 4.56454e-009 -9.88324e-010 0 
356 1 7.99847e-009 1.0129e-009 0 
357 1 -7.99831e-009 -9.88325e-010 0 
358 1 -4.56442e-009 1.01291e-009 0 
359 1 1.07774e-010 -9.88324e-010 0 
360 1 -1.07776e-010 1.0129e-009 0 
361 1 4.56442e-009 -9.88333e-010 0 
362 1 7.99831e-009 1.0129e-009 0 
363 1 -7.99847e-009 -9.88325e-010 0 
364 1 -4.56454e-009 1.0129e-009 0 
365 1 1.08343e-010 -9.88324e-010 0 
366 1 -1.07895e-010 1.01291e-009 0 
367 1 4.56426e-009 -9.88333e-010 0 
368 1 7.99815e-009 1.0129e-009 0 
369 1 -7.99859e-009 -9.88316e-010 0 
370 1 -4.56398e-009 1.0129e-009 0 
371 1 1.3178e-010 -9.88333e-010 0 
372 1 -1.67782e-013 1.01291e-009 0 
373 1 -1.31898e-010 -9.88324e-010 0 
374 1 4.56454e-009 1.0129e-009 0 
375 1 7.99847e-009 -9.88325e-010 0 
376 1 -7.99831e-009 1.0129e-009 0 
377 1 -4.56443e-009 -9.88333e-010 0 
378 1 1.07943e-010 1.0129e-009 0 
379 1 -1.0765e-010 -9.88332e-010 0 
380 1 4.56386e-009 1.0129e-009 0 
381 1 7.99826e-009 -9.88316e-010 0 
382 1 -7.99826e-009 1.0129e-009 0 
383 1 -4.56385e-009 -9.88332e-010 0 
384 1 1.07493e-010 1.0129e-009 0 
385 1 -1.08062e-010 -9.88315e-010 0 
386 1 4.56499e-009 1.0129e-009 0 
387 1 7.99802e-009 -9.88333e-010 0 
388 1 -7.9986e-009 1.0129e-009 0 
389 1 -4.56384e-009 -9.88332e-010 0 
390 1 1.31049e-010 1.0129e-009 0 
391 1 5.55112e-017 -9.88315e-010 0 
392 1 -1.31047e-010 1.0129e-009 0 
393 1 4.56385e-009 -9.88332e-010 0 
394 1 7.99826e-009 1.0129e-009 0 
395 1 -7.99826e-009 -9.88316e-010 0 
396 1 -4.56386e-009 1.0129e-009 0 
397 1 1.17706e-010 -9.88332e-010 0 
398 1 -5.47203e-011 1.0129e-009 0 
399 1 2.56004e-009 -9.88331e-010 0 
400 1 5.23449e-009 1.01291e-009 0 
401 1 -2.63777e-009 -1.95201e-009 0 
403 1 2.5187e-010 -1.95201e-009 0 
405 1 3.3454e-010 -1.952e-009 0 
407 1 7.99853e-010 -1.952e-009 0 
409 1 -7.99929e-010 -1.952e-009 0 
411 1 -3.30206e-010 -1.95201e-009 0 
413 1 -3.43447e-010 -1.95201e-009 0 
415 1 -4.64434e-012 -1.95201e-009 0 
417 1 1.28488e-009 -1.95201e-009 0 
419 1 -3.29446e-009 -1.952e-009 0 
421 1 -8.73525e-011 -1.95201e-009 0 
423 1 7.99845e-009 -1.95201e-009 0 
425 1 -4.5644e-009 -1.95201e-009 0 
427 1 -1.0821e-010 -1.95201e-009 0 
429 1 7.99868e-009 -1.95201e-009 0 
431 1 -4.56463e-009 -1.952e-009 0 
433 1 4.85723e-016 -1.952e-009 0 
435 1 4.56454e-009 -1.952e-009 0 
437 1 -7.9983e-009 -1.952e-009 0 
439 1 1.07771e-010 -1.952e-009 0 
441 1 4.56442e-009 -1.952e-009 0 
443 1 -7.99847e-009 -1.952e-009 0 
445 1 1.08346e-010 -1.952e-009 0 
447 1 4.56426e-009 -1.952e-009 0 
449 1 -7.99859e-009 -1.952e-009 0 
451 1 1.3178e-010 -1.952e-009 0 
453 1 -1.319e-010 -1.952e-009 0 
455 1 7.99847e-009 -1.952e-009 0 
457 1 -4.56443e-009 -1.952e-009 0 
459 1 -1.07653e-010 -1.952e-009 0 
461 1 7.99826e-009 -1.952e-009 0 
463 1 -4.56385e-009 -1.952e-009 0 
465 1 -1.08063e-010 -1.952e-009 0 
467 1 7.99802e-009 -1.952e-009 0 
469 1 -4.56385e-009 -1.952e-009 0 
471 1 2.77556e-017 -1.952e-009 0 
473 1 4.56385e-009 -1.952e-009 0 
475 1 -7.99826e-009 -1.952e-009 0 
477 1 1.17709e-010 -1.952e-009 0 
479 1 2.56004e-009 -1.952e-009 0 
402 1 -1.84862e-009 -1.07482e-009 0 
481 1 -2.63776e-009 9.89672e-009 0 
483 1 2.51869e-010 9.89672e-009 0 
404 1 -5.09467e-010 -1.07482e-009 0 
485 1 3.3454e-010 9.89672e-009 0 
406 1 -3.42456e-010 -1.07482e-009 0 
408 1 3.01148e-014 -1.07483e-009 0 
487 1 7.99853e-010 9.89672e-009 0 
410 1 3.43462e-010 -1.07482e-009 0 
489 1 -7.99927e-010 9.89672e-009 0 
412 1 3.30248e-010 -1.07482e-009 0 
491 1 -3.30207e-010 9.89672e-009 0 
493 1 -3.43448e-010 9.89672e-009 0 
414 1 7.99775e-010 -1.07482e-009 0 
495 1 -4.64506e-012 9.89672e-009 0 
416 1 -8.21452e-010 -1.07482e-009 0 
418 1 3.74552e-010 -1.07482e-009 0 
497 1 1.28488e-009 9.89673e-009 0 
420 1 -1.36428e-009 -1.07482e-009 0 
499 1 -3.29446e-009 9.89671e-009 0 
501 1 -8.73593e-011 9.89672e-009 0 
422 1 4.57126e-009 -1.07482e-009 0 
503 1 7.99845e-009 9.89672e-009 0 
424 1 -7.99831e-009 -1.07482e-009 0 
505 1 -4.5644e-009 9.89672e-009 0 
426 1 1.08127e-010 -1.07482e-009 0 
428 1 4.56434e-009 -1.07482e-009 0 
507 1 -1.08202e-010 9.89672e-009 0 
430 1 -7.99854e-009 -1.07482e-009 0 
509 1 7.99868e-009 9.89673e-009 0 
432 1 1.31902e-010 -1.07482e-009 0 
511 1 -4.56462e-009 9.89671e-009 0 
513 1 3.60822e-016 9.89671e-009 0 
434 1 -1.31901e-010 -1.07482e-009 0 
436 1 7.99847e-009 -1.07482e-009 0 
515 1 4.56454e-009 9.89671e-009 0 
438 1 -4.56442e-009 -1.07483e-009 0 
517 1 -7.99831e-009 9.89671e-009 0 
440 1 -1.07775e-010 -1.07482e-009 0 
519 1 1.07778e-010 9.89671e-009 0 
521 1 4.56442e-009 9.89671e-009 0 
442 1 7.99831e-009 -1.07482e-009 0 
523 1 -7.99848e-009 9.89671e-009 0 
444 1 -4.56454e-009 -1.07482e-009 0 
446 1 -1.07895e-010 -1.07483e-009 0 
525 1 1.0834e-010 9.89671e-009 0 
448 1 7.99815e-009 -1.07482e-009 0 
527 1 4.56426e-009 9.89671e-009 0 
450 1 -4.56397e-009 -1.07482e-009 0 
529 1 -7.99859e-009 9.89671e-009 0 
452 1 -1.67803e-013 -1.07483e-009 0 
531 1 1.3178e-010 9.89671e-009 0 
533 1 -1.31894e-010 9.89671e-009 0 
454 1 4.56454e-009 -1.07482e-009 0 
535 1 7.99848e-009 9.89671e-009 0 
456 1 -7.99831e-009 -1.07482e-009 0 
458 1 1.07943e-010 -1.07482e-009 0 
537 1 -4.56442e-009 9.89671e-009 0 
460 1 4.56386e-009 -1.07481e-009 0 
539 1 -1.07648e-010 9.89671e-009 0 
541 1 7.99826e-009 9.89671e-009 0 
462 1 -7.99826e-009 -1.07481e-009 0 
543 1 -4.56385e-009 9.89671e-009 0 
464 1 1.07486e-010 -1.07481e-009 0 
466 1 4.565e-009 -1.07481e-009 0 
545 1 -1.08063e-010 9.89671e-009 0 
468 1 -7.9986e-009 -1.07481e-009 0 
547 1 7.99801e-009 9.89671e-009 0 
470 1 1.31042e-010 -1.07481e-009 0 
549 1 -4.56384e-009 9.89671e-009 0 
472 1 -1.31041e-010 -1.07481e-009 0 
551 1 2.77556e-017 9.89671e-009 0 
553 1 4.56385e-009 9.89671e-009 0 
474 1 7.99826e-009 -1.07481e-009 0 
555 1 -7.99826e-009 9.89671e-009 0 
476 1 -4.56385e-009 -1.07481e-009 0 
478 1 -5.47202e-011 -1.07481e-009 0 
557 1 1.17704e-010 9.89671e-009 0 
480 1 5.23448e-009 -1.07482e-009 0 
559 1 2.56005e-009 9.89671e-009 0 
482 1 -1.84863e-009 -9.88439e-009 0 
484 1 -5.09467e-010 -9.8844e-009 0 
486 1 -3.42452e-010 -9.88439e-009 0 
488 1 3.02258e-014 -9.88439e-009 0 
490 1 3.43463e-010 -9.88439e-009 0 
492 1 3.30247e-010 -9.88439e-009 0 
494 1 7.99775e-010 -9.8844e-009 0 
496 1 -8.21451e-010 -9.88439e-009 0 
498 1 3.74548e-010 -9.88439e-009 0 
500 1 -1.36427e-009 -9.88439e-009 0 
502 1 4.57126e-009 -9.88439e-009 0 
504 1 -7.99831e-009 -9.88438e-009 0 
506 1 1.08119e-010 -9.88439e-009 0 
508 1 4.56434e-009 -9.8844e-009 0 
510 1 -7.99854e-009 -9.88438e-009 0 
512 1 1.319e-010 -9.88438e-009 0 
514 1 -1.31898e-010 -9.88438e-009 0 
516 1 7.99848e-009 -9.88438e-009 0 
518 1 -4.56442e-009 -9.88438e-009 0 
520 1 -1.07778e-010 -9.88438e-009 0 
522 1 7.99831e-009 -9.88438e-009 0 
524 1 -4.56454e-009 -9.88438e-009 0 
526 1 -1.07895e-010 -9.88438e-009 0 
528 1 7.99815e-009 -9.88438e-009 0 
530 1 -4.56398e-009 -9.88438e-009 0 
532 1 -1.67699e-013 -9.88438e-009 0 
534 1 4.56454e-009 -9.88438e-009 0 
536 1 -7.99831e-009 -9.88438e-009 0 
538 1 1.07945e-010 -9.88438e-009 0 
540 1 4.56385e-009 -9.88438e-009 0 
542 1 -7.99826e-009 -9.88438e-009 0 
544 1 1.07483e-010 -9.88438e-009 0 
546 1 4.565e-009 -9.88438e-009 0 
548 1 -7.9986e-009 -9.88438e-009 0 
550 1 1.31039e-010 -9.88438e-009 0 
552 1 -1.31037e-010 -9.88438e-009 0 
554 1 7.99826e-009 -9.88438e-009 0 
556 1 -4.56385e-009 -9.88438e-009 0 
558 1 -5.47203e-011 -9.88438e-009 0 
560 1 5.23448e-009 -9.88439e-009 0 
561 1 -2.63776e-009 2.08167e-015 0 
562 1 -1.84862e-009 -3.49236e-010 0 
563 1 2.51865e-010 2.13718e-015 0 
564 1 -5.09466e-010 -3.49228e-010 0 
565 1 3.34543e-010 2.23432e-015 0 
566 1 -3.42453e-010 -3.4923e-010 0 
567 1 7.99856e-010 2.22045e-015 0 
568 1 3.03368e-014 -3.49231e-010 0 
569 1 -7.99927e-010 2.22045e-015 0 
570 1 3.43466e-010 -3.4923e-010 0 
571 1 -3.3021e-010 2.13718e-015 0 
572 1 3.30249e-010 -3.49227e-010 0 
573 1 -3.4345e-010 2.16493e-015 0 
574 1 7.99773e-010 -3.4923e-010 0 
575 1 -4.64254e-012 2.13718e-015 0 
576 1 -8.21454e-010 -3.49227e-010 0 
577 1 1.28488e-009 2.1233e-015 0 
578 1 3.74554e-010 -3.4923e-010 0 
579 1 -3.29446e-009 2.08167e-015 0 
580 1 -1.36428e-009 -3.49225e-010 0 
581 1 -8.7353e-011 2.13718e-015 0 
582 1 4.57126e-009 -3.49225e-010 0 
583 1 7.99846e-009 2.1233e-015 0 
584 1 -7.99831e-009 -3.49238e-010 0 
585 1 -4.5644e-009 2.19269e-015 0 
586 1 1.08123e-010 -3.49225e-010 0 
587 1 -1.08209e-010 2.16493e-015 0 
588 1 4.56434e-009 -3.4922e-010 0 
589 1 7.99869e-009 2.23432e-015 0 
590 1 -7.99854e-009 -3.49236e-010 0 
591 1 -4.56462e-009 2.22045e-015 0 
592 1 1.31901e-010 -3.49236e-010 0 
593 1 3.60822e-016 2.16493e-015 0 
594 1 -1.319e-010 -3.49236e-010 0 
595 1 4.56454e-009 2.23432e-015 0 
596 1 7.99847e-009 -3.49237e-010 0 
597 1 -7.99831e-009 2.23432e-015 0 
598 1 -4.56442e-009 -3.4923e-010 0 
599 1 1.0778e-010 2.16493e-015 0 
600 1 -1.07776e-010 -3.49236e-010 0 
601 1 4.56442e-009 2.23432e-015 0 
602 1 7.99831e-009 -3.49237e-010 0 
603 1 -7.99848e-009 2.22045e-015 0 
604 1 -4.56454e-009 -3.49236e-010 0 
605 1 1.08339e-010 2.17881e-015 0 
606 1 -1.07895e-010 -3.4923e-010 0 
607 1 4.56426e-009 2.1233e-015 0 
608 1 7.99815e-009 -3.49237e-010 0 
609 1 -7.99859e-009 2.22045e-015 0 
610 1 -4.56397e-009 -3.49236e-010 0 
611 1 1.3178e-010 2.17881e-015 0 
612 1 -1.67776e-013 -3.4923e-010 0 
613 1 -1.31893e-010 2.16493e-015 0 
614 1 4.56454e-009 -3.49236e-010 0 
615 1 7.99848e-009 2.23432e-015 0 
616 1 -7.99831e-009 -3.49237e-010 0 
617 1 -4.56442e-009 2.27596e-015 0 
618 1 1.07944e-010 -3.49236e-010 0 
619 1 -1.07652e-010 2.17881e-015 0 
620 1 4.56386e-009 -3.49242e-010 0 
621 1 7.99826e-009 2.19269e-015 0 
622 1 -7.99826e-009 -3.49244e-010 0 
623 1 -4.56385e-009 2.06779e-015 0 
624 1 1.07486e-010 -3.49242e-010 0 
625 1 -1.08062e-010 2.06779e-015 0 
626 1 4.565e-009 -3.49242e-010 0 
627 1 7.99802e-009 2.19269e-015 0 
628 1 -7.9986e-009 -3.49244e-010 0 
629 1 -4.56384e-009 2.06779e-015 0 
630 1 1.31042e-010 -3.49242e-010 0 
631 1 2.77556e-017 2.06779e-015 0 
632 1 -1.31041e-010 -3.49242e-010 0 
633 1 4.56385e-009 2.19269e-015 0 
634 1 7.99826e-009 -3.49244e-010 0 
635 1 -7.99826e-009 2.06779e-015 0 
636 1 -4.56385e-009 -3.49242e-010 0 
637 1 1.17707e-010 2.15106e-015 0 
638 1 -5.47201e-011 -3.49242e-010 0 
639 1 2.56004e-009 2.41474e-015 0 
640 1 5.23448e-009 -3.49234e-010 0 
641 1 -2.63776e-009 1.06954e-008 0 
643 1 2.51872e-010 1.06954e-008 0 
645 1 3.34542e-010 1.06954e-008 0 
647 1 7.99855e-010 1.06954e-008 0 
649 1 -7.99926e-010 1.06954e-008 0 
651 1 -3.30211e-010 1.06954e-008 0 
653 1 -3.43452e-010 1.06954e-008 0 
655 1 -4.63724e-012 1.06954e-008 0 
657 1 1.28488e-009 1.06954e-008 0 
659 1 -3.29446e-009 1.06954e-008 0 
661 1 -8.73587e-011 1.06954e-008 0 
663 1 7.99845e-009 1.06954e-008 0 
665 1 -4.5644e-009 1.06954e-008 0 
667 1 -1.08203e-010 1.06954e-008 0 
669 1 7.99868e-009 1.06954e-008 0 
671 1 -4.56463e-009 1.06954e-008 0 
673 1 4.71845e-016 1.06954e-008 0 
675 1 4.56454e-009 1.06954e-008 0 
677 1 -7.99831e-009 1.06954e-008 0 
679 1 1.07774e-010 1.06954e-008 0 
681 1 4.56442e-009 1.06954e-008 0 
683 1 -7.99847e-009 1.06954e-008 0 
685 1 1.08344e-010 1.06954e-008 0 
687 1 4.56426e-009 1.06954e-008 0 
689 1 -7.99859e-009 1.06954e-008 0 
691 1 1.3178e-010 1.06954e-008 0 
693 1 -1.31898e-010 1.06954e-008 0 
695 1 7.99847e-009 1.06954e-008 0 
697 1 -4.56442e-009 1.06954e-008 0 
699 1 -1.07652e-010 1.06954e-008 0 
701 1 7.99826e-009 1.06954e-008 0 
703 1 -4.56385e-009 1.06954e-008 0 
705 1 -1.08063e-010 1.06954e-008 0 
707 1 7.99802e-009 1.06954e-008 0 
709 1 -4.56384e-009 1.06954e-008 0 
711 1 2.77556e-017 1.06954e-008 0 
713 1 4.56385e-009 1.06954e-008 0 
715 1 -7.99826e-009 1.06954e-008 0 
717 1 1.17707e-010 1.06954e-008 0 
719 1 2.56004e-009 1.06954e-008 0 
642 1 -1.84862e-009 -1.2918e-008 0 
721 1 -2.63723e-009 6.58067e-009 0 
723 1 2.51778e-010 6.5816e-009 0 
644 1 -5.09464e-010 -1.2918e-008 0 
725 1 3.34408e-010 6.5817e-009 0 
646 1 -3.42453e-010 -1.2918e-008 0 
648 1 3.19744e-014 -1.2918e-008 0 
727 1 7.99729e-010 6.58172e-009 0 
650 1 3.43465e-010 -1.2918e-008 0 
729 1 -7.99803e-010 6.58172e-009 0 
652 1 3.3025e-010 -1.2918e-008 0 
731 1 -3.30075e-010 6.5817e-009 0 
733 1 -3.43314e-010 6.5817e-009 0 
654 1 7.99772e-010 -1.2918e-008 0 
735 1 -4.64351e-012 6.58144e-009 0 
656 1 -8.21455e-010 -1.2918e-008 0 
658 1 3.74552e-010 -1.2918e-008 0 
737 1 1.28476e-009 6.58174e-009 0 
660 1 -1.36428e-009 -1.2918e-008 0 
739 1 -3.29409e-009 6.58168e-009 0 
741 1 -8.73464e-011 6.58236e-009 0 
662 1 4.57126e-009 -1.2918e-008 0 
743 1 7.99717e-009 6.57999e-009 0 
664 1 -7.99829e-009 -1.2918e-008 0 
745 1 -4.56449e-009 6.58254e-009 0 
666 1 1.08124e-010 -1.2918e-008 0 
668 1 4.56434e-009 -1.2918e-008 0 
747 1 -1.08203e-010 6.58236e-009 0 
670 1 -7.99852e-009 -1.2918e-008 0 
749 1 7.9974e-009 6.57998e-009 0 
672 1 1.31904e-010 -1.2918e-008 0 
751 1 -4.56471e-009 6.58255e-009 0 
753 1 3.46945e-016 6.58236e-009 0 
674 1 -1.31902e-010 -1.2918e-008 0 
676 1 7.99846e-009 -1.2918e-008 0 
755 1 4.56462e-009 6.58255e-009 0 
678 1 -4.56442e-009 -1.2918e-008 0 
757 1 -7.99702e-009 6.57999e-009 0 
680 1 -1.07773e-010 -1.2918e-008 0 
759 1 1.07766e-010 6.58236e-009 0 
761 1 4.5645e-009 6.58254e-009 0 
682 1 7.99829e-009 -1.2918e-008 0 
763 1 -7.99718e-009 6.57999e-009 0 
684 1 -4.56454e-009 -1.2918e-008 0 
686 1 -1.07895e-010 -1.2918e-008 0 
765 1 1.08337e-010 6.58236e-009 0 
688 1 7.99813e-009 -1.2918e-008 0 
767 1 4.56434e-009 6.58254e-009 0 
690 1 -4.56397e-009 -1.2918e-008 0 
769 1 -7.99731e-009 6.57999e-009 0 
692 1 -1.67817e-013 -1.2918e-008 0 
771 1 1.31773e-010 6.58236e-009 0 
773 1 -1.31891e-010 6.58236e-009 0 
694 1 4.56454e-009 -1.2918e-008 0 
775 1 7.99718e-009 6.57999e-009 0 
696 1 -7.99829e-009 -1.2918e-008 0 
698 1 1.07941e-010 -1.2918e-008 0 
777 1 -4.56451e-009 6.58254e-009 0 
700 1 4.56386e-009 -1.2918e-008 0 
779 1 -1.07645e-010 6.58237e-009 0 
781 1 7.99697e-009 6.57999e-009 0 
702 1 -7.99825e-009 -1.2918e-008 0 
783 1 -4.56394e-009 6.58255e-009 0 
704 1 1.07487e-010 -1.2918e-008 0 
706 1 4.565e-009 -1.2918e-008 0 
785 1 -1.08056e-010 6.58237e-009 0 
708 1 -7.99858e-009 -1.2918e-008 0 
787 1 7.99673e-009 6.57999e-009 0 
710 1 1.31042e-010 -1.2918e-008 0 
789 1 -4.56393e-009 6.58255e-009 0 
712 1 -1.31041e-010 -1.2918e-008 0 
791 1 0 6.58236e-009 0 
793 1 4.56394e-009 6.58255e-009 0 
714 1 7.99825e-009 -1.2918e-008 0 
795 1 -7.99697e-009 6.57999e-009 0 
716 1 -4.56385e-009 -1.2918e-008 0 
718 1 -5.47203e-011 -1.2918e-008 0 
797 1 1.177e-010 6.58237e-009 0 
720 1 5.23448e-009 -1.2918e-008 0 
799 1 2.56009e-009 6.58247e-009 0 
722 1 -1.84822e-009 2.83344e-010 0 
801 1 -1.9028e-009 -2.94959e-009 0 
802 1 1.22654e-010 -1.86408e-009 0 
724 1 -4.99076e-010 2.77577e-010 0 
803 1 1.55645e-010 -1.76792e-009 0 
726 1 -3.31848e-010 2.77059e-010 0 
728 1 2.60902e-014 2.57231e-010 0 
804 1 6.23558e-010 -1.76805e-009 0 
730 1 3.32852e-010 2.77056e-010 0 
805 1 -6.23596e-010 -1.76804e-009 0 
732 1 3.19694e-010 2.77038e-010 0 
806 1 -1.53486e-010 -1.76939e-009 0 
807 1 -1.61269e-010 -1.76574e-009 0 
734 1 7.89628e-010 2.78387e-010 0 
808 1 -4.65543e-012 -2.04499e-009 0 
736 1 -8.11196e-010 2.78431e-010 0 
738 1 3.63827e-010 2.37369e-010 0 
809 1 1.10355e-009 -1.76305e-009 0 
740 1 -1.36579e-009 3.32347e-010 0 
810 1 -2.78276e-009 -1.7817e-009 0 
811 1 -4.91801e-011 -9.24999e-010 0 
742 1 4.57591e-009 3.41919e-010 0 
812 1 6.23537e-009 -3.71522e-009 0 
744 1 -7.89684e-009 1.43727e-010 0 
813 1 -4.62311e-009 -9.22598e-010 0 
746 1 1.07564e-010 3.2839e-010 0 
748 1 4.56898e-009 3.41924e-010 0 
814 1 -5.35918e-011 -9.35946e-010 0 
750 1 -7.89706e-009 1.43719e-010 0 
815 1 6.23557e-009 -3.71527e-009 0 
752 1 1.31339e-010 3.28389e-010 0 
816 1 -4.62331e-009 -9.22551e-010 0 
817 1 4.71845e-016 -9.72492e-010 0 
754 1 -1.31338e-010 3.28389e-010 0 
756 1 7.897e-009 1.43727e-010 0 
818 1 4.62322e-009 -9.22551e-010 0 
758 1 -4.56907e-009 3.41913e-010 0 
819 1 -63.9724 -133.853 0 
760 1 -1.07218e-010 3.28389e-010 0 
820 1 -128.06 -535.898 0 
821 1 1.28047e-010 -752.872 0 
762 1 7.89684e-009 1.43728e-010 0 
822 1 128.06 -535.898 0 
764 1 -4.56918e-009 3.41918e-010 0 
766 1 -1.07335e-010 3.28385e-010 0 
823 1 63.9724 -133.853 0 
768 1 7.89667e-009 1.43727e-010 0 
824 1 4.623e-009 -9.22652e-010 0 
770 1 -4.56862e-009 3.41918e-010 0 
825 1 -6.23548e-009 -3.71518e-009 0 
772 1 -1.67866e-013 3.28181e-010 0 
826 1 7.71977e-011 -9.36e-010 0 
827 1 -7.72536e-011 -9.35899e-010 0 
774 1 4.56918e-009 3.41918e-010 0 
828 1 6.23543e-009 -3.71528e-009 0 
776 1 -7.89684e-009 1.43728e-010 0 
778 1 1.07386e-010 3.2839e-010 0 
829 1 -4.62317e-009 -9.22649e-010 0 
780 1 4.56851e-009 3.41907e-010 0 
830 1 -5.31968e-011 -9.35996e-010 0 
831 1 6.23515e-009 -3.71518e-009 0 
782 1 -7.89678e-009 1.43732e-010 0 
832 1 -4.62272e-009 -9.22651e-010 0 
784 1 1.06934e-010 3.28378e-010 0 
786 1 4.56964e-009 3.41907e-010 0 
833 1 -5.34784e-011 -9.35799e-010 0 
788 1 -7.89712e-009 1.43733e-010 0 
834 1 6.23504e-009 -3.71537e-009 0 
790 1 1.3049e-010 3.28378e-010 0 
835 1 -4.62272e-009 -9.22648e-010 0 
792 1 -1.30489e-010 3.28378e-010 0 
836 1 0 -9.72291e-010 0 
837 1 4.62272e-009 -9.22651e-010 0 
794 1 7.89678e-009 1.43732e-010 0 
838 1 -6.23515e-009 -3.71518e-009 0 
796 1 -4.56851e-009 3.41907e-010 0 
798 1 -5.44034e-011 3.28306e-010 0 
839 1 6.32523e-011 -9.35997e-010 0 
800 1 5.17787e-009 2.25979e-010 0 
840 1 2.6019e-009 -9.38436e-010 0 
ITEM: TIMESTEP
1
ITEM: NUMBER OF ATOMS
840
ITEM: BOX BOUNDS pp ss pp
0 45.3078
-0.00192204 19.2185
-0.283174 0.283174
ITEM: ATOMS id type fx fy fz 
1 2 0 0 0 
2 2 0 0 0 
3 2 0 0 0 
4 2 0 0 0 
5 2 0 0 0 
6 2 0 0 0 
7 2 0 0 0 
8 2 0 0 0 
9 2 0 0 0 
10 2 0 0 0 
11 2 0 0 0 
12 2 0 0 0 
13 2 0 0 0 
14 2 0 0 0 
15 2 0 0 0 
16 2 0 0 0 
17 2 0 0 0 
18 2 0 0 0 
19 2 0 0 0 
20 2 0 0 0 
21 2 0 0 0 
22 2 0 0 0 
23 2 0 0 0 
24 2 0 0 0 
25 2 0 0 0 
26 2 0 0 0 
27 2 0 0 0 
28 2 0 0 0 
29 2 0 0 0 
30 2 0 0 0 
31 2 0 0 0 
32 2 0 0 0 
33 2 0 0 0 
34 2 0 0 0 
35 2 0 0 0 
36 2 0 0 0 
37 2 0 0 0 
38 2 0 0 0 
39 2 0 0 0 
40 2 0 0 0 
41 2 0 0 0 
42 2 0 0 0 
43 2 0 0 0 
44 2 0 0 0 
45 2 0 0 0 
46 2 0 0 0 
47 2 0 0 0 
48 2 0 0 0 
49 2 0 0 0 
50 2 0 0 0 
51 2 0 0 0 
52 2 0 0 0 
53 2 0 0 0 
54 2 0 0 0 
55 2 0 0 0 
56 2 0 0 0 
57 2 0 0 0 
58 2 0 0 0 
59 2 0 0 0 
60 2 0 0 0 
61 2 0 0 0 
62 2 0 0 0 
63 2 0 0 0 
64 2 0 0 0 
65 2 0 0 0 
66 2 0 0 0 
67 2 0 0 0 
68 2 0 0 0 
69 2 0 0 0 
70 2 0 0 0 
71 2 0 0 0 
72 2 0 0 0 
73 2 0 0 0 
74 2 0 0 0 
75 2 0 0 0 
76 2 0 0 0 
77 2 0 0 0 
78 2 0 0 0 
79 2 0 0 0 
80 2 0 0 0 
81 2 0 0 0 
82 1 -1.84864e-009 5.50943e-010 0 
83 2 0 0 0 
84 1 -5.08757e-010 5.51358e-010 0 
85 2 0 0 0 
86 1 -3.41723e-010 5.51392e-010 0 
87 2 0 0 0 
88 1 3.30014e-014 5.52761e-010 0 
89 2 0 0 0 
90 1 3.42733e-010 5.51397e-010 0 
91 2 0 0 0 
92 1 3.29522e-010 5.51392e-010 0 
93 2 0 0 0 
94 1 7.99089e-010 5.51302e-010 0 
95 2 0 0 0 
96 1 -8.2076e-010 5.51292e-010 0 
97 2 0 0 0 
98 1 3.73812e-010 5.5414e-010 0 
99 2 0 0 0 
100 1 -1.36442e-009 5.47599e-010 0 
101 2 0 0 0 
102 1 4.5717e-009 5.4691e-010 0 
103 2 0 0 0 
104 1 -7.99142e-009 5.60574e-010 0 
105 2 0 0 0 
106 1 1.08084e-010 5.47884e-010 0 
107 2 0 0 0 
108 1 4.56478e-009 5.469e-010 0 
109 2 0 0 0 
110 1 -7.99165e-009 5.60582e-010 0 
111 2 0 0 0 