ITEM: TIMESTEP
0
ITEM: NUMBER OF ATOMS
840
ITEM: BOX BOUNDS pp ss pp
0 45.3078
-0.00192204 19.2185
-0.283174 0.283174
ITEM: ATOMS id type fx fy fz 
1 2 0 0 0 
2 2 0 0 0 
3 2 0 0 0 
4 2 0 0 0 
5 2 0 0 0 
6 2 0 0 0 
7 2 0 0 0 
8 2 0 0 0 
9 2 0 0 0 
10 2 0 0 0 
11 2 0 0 0 
12 2 0 0 0 
13 2 0 0 0 
14 2 0 0 0 
15 2 0 0 0 
16 2 0 0 0 
17 2 0 0 0 
18 2 0 0 0 
19 2 0 0 0 
20 2 0 0 0 
21 2 0 0 0 
22 2 0 0 0 
23 2 0 0 0 
24 2 0 0 0 
25 2 0 0 0 
26 2 0 0 0 
27 2 0 0 0 
28 2 0 0 0 
29 2 0 0 0 
30 2 0 0 0 
31 2 0 0 0 
32 2 0 0 0 
33 2 0 0 0 
34 2 0 0 0 
35 2 0 0 0 
36 2 0 0 0 
37 2 0 0 0 
38 2 0 0 0 
39 2 0 0 0 
40 2 0 0 0 
41 2 0 0 0 
42 2 0 0 0 
43 2 0 0 0 
44 2 0 0 0 
45 2 0 0 0 
46 2 0 0 0 
47 2 0 0 0 
48 2 0 0 0 
49 2 0 0 0 
50 2 0 0 0 
51 2 0 0 0 
52 2 0 0 0 
53 2 0 0 0 
54 2 0 0 0 
55 2 0 0 0 
56 2 0 0 0 
57 2 0 0 0 
58 2 0 0 0 
59 2 0 0 0 
60 2 0 0 0 
61 2 0 0 0 
62 2 0 0 0 
63 2 0 0 0 
64 2 0 0 0 
65 2 0 0 0 
66 2 0 0 0 
67 2 0 0 0 
68 2 0 0 0 
69 2 0 0 0 
70 2 0 0 0 
71 2 0 0 0 
72 2 0 0 0 
73 2 0 0 0 
74 2 0 0 0 
75 2 0 0 0 
76 2 0 0 0 
77 2 0 0 0 
78 2 0 0 0 
79 2 0 0 0 
80 2 0 0 0 
81 2 0 0 0 
82 1 -0.000128004 4.76462e-005 0 
83 2 0 0 0 
84 1 -2.56635e-005 -0.000412136 0 
85 2 0 0 0 
86 1 0.000180058 -0.000432683 0 
87 2 0 0 0 
88 1 -7.06402e-005 -0.000112866 0 
89 2 0 0 0 
90 1 -0.000200066 -0.000258617 0 
91 2 0 0 0 
92 1 -7.96407e-005 -7.60033e-005 0 
93 2 0 0 0 
94 1 -0.000246566 -0.000299469 0 
95 2 0 0 0 
96 1 -4.88805e-005 -0.000138724 0 
97 2 0 0 0 
98 1 0.00022851 -0.000436483 0 
99 2 0 0 0 
100 1 -0.000173291 -0.000226527 0 
101 2 0 0 0 
102 1 -0.000367412 -0.00024187 0 
103 2 0 0 0 
104 1 0.000316448 -0.000370178 0 
105 2 0 0 0 
106 1 -0.000369473 -0.000548338 0 
107 2 0 0 0 
108 1 0.000136706 -0.000222249 0 
109 2 0 0 0 
110 1 -0.000263803 -0.000330541 0 
111 2 0 0 0 
112 1 0.000313314 0.000210928 0 
113 2 0 0 0 
114 1 -0.000473411 -0.00031762 0 
115 2 0 0 0 
116 1 0.000326328 -0.000403537 0 
117 2 0 0 0 
118 1 -0.000315323 -0.000123296 0 
119 2 0 0 0 
120 1 0.000104553 -0.000579542 0 
121 2 0 0 0 
122 1 -0.000111907 0.000211714 0 
123 2 0 0 0 
124 1 -5.82237e-007 -0.000186746 0 
125 2 0 0 0 
126 1 0.000158035 -0.000350596 0 
127 2 0 0 0 
128 1 -0.000289506 5.76465e-005 0 
129 2 0 0 0 
130 1 -0.000343065 0.000156189 0 
131 2 0 0 0 
132 1 0.000310461 -0.000350043 0 
133 2 0 0 0 
134 1 -0.000344551 -0.000141736 0 
135 2 0 0 0 
136 1 -6.54897e-005 -0.000210136 0 
137 2 0 0 0 
138 1 0.000211512 3.36558e-005 0 
139 2 0 0 0 
140 1 -0.000199043 -0.000314531 0 
141 2 0 0 0 
142 1 7.44562e-005 0.000140587 0 
143 2 0 0 0 
144 1 -0.000234042 -0.000150478 0 
145 2 0 0 0 
146 1 -0.000269358 1.78912e-005 0 
147 2 0 0 0 
148 1 0.00022313 0.000126927 0 
149 2 0 0 0 
150 1 -0.000176822 -0.000405254 0 
151 2 0 0 0 
152 1 -0.000140151 -5.537e-006 0 
153 2 0 0 0 
154 1 -0.00024175 -5.69433e-005 0 
155 2 0 0 0 
156 1 1.90647e-005 -0.000199555 0 
157 2 0 0 0 
158 1 1.68886e-005 -0.000344559 0 
159 2 0 0 0 
160 1 2.62261e-005 -0.000248113 0 
161 1 0.000227857 -0.000179506 0 
163 1 -0.000190535 0.000264666 0 
165 1 0.000107196 6.81434e-005 0 
167 1 -6.65523e-005 0.000307387 0 
169 1 -0.000103262 -0.000121896 0 
171 1 1.21946e-005 0.000216473 0 
173 1 2.8399e-005 -0.000261512 0 
175 1 0.000187006 -0.000102001 0 
177 1 3.42385e-006 0.00034441 0 
179 1 -0.000256951 -0.000311677 0 
181 1 0.000356284 -4.0026e-005 0 
183 1 -0.000197992 0.00044143 0 
185 1 -3.59989e-005 0.000266838 0 
187 1 0.000121159 0.000397074 0 
189 1 -0.000198991 -8.42953e-005 0 
191 1 0.000302861 0.000258811 0 
193 1 -0.000155033 -0.000513379 0 
195 1 -6.72183e-005 0.000457652 0 
197 1 -6.2656e-005 0.000119636 0 
199 1 -0.000310911 0.000152473 0 
201 1 0.000342684 -0.000224757 0 
203 1 0.000117684 -0.000163256 0 
205 1 -0.0003332 -0.000136607 0 
207 1 0.000200984 -8.95124e-005 0 
209 1 0.000269158 -0.000177003 0 
211 1 -0.000352878 0.000378504 0 
213 1 0.000278696 -0.000348008 0 
215 1 3.05685e-005 -0.000180481 0 
217 1 -0.000141988 -0.000142252 0 
219 1 1.67733e-005 -0.00027832 0 
221 1 -4.14453e-005 -0.000247352 0 
223 1 -1.40332e-005 -0.000485673 0 
225 1 2.49056e-005 0.000156177 0 
227 1 0.000342563 -8.56846e-005 0 
229 1 -0.000344822 -1.8882e-005 0 
231 1 0.000151313 -0.000219102 0 
233 1 7.417e-005 0.000175017 0 
235 1 -3.89132e-005 0.000370071 0 
237 1 1.4928e-005 8.78051e-005 0 
239 1 1.10309e-005 -0.000138946 0 
162 1 -0.000128948 -0.000134806 0 
241 1 6.42473e-005 -0.000167821 0 
243 1 -0.000196308 -3.85453e-005 0 
164 1 -3.75647e-005 0.000168754 0 
245 1 -0.000221315 -0.000114769 0 
166 1 0.000266281 1.35104e-005 0 
168 1 -0.000154891 -0.000117352 0 
247 1 0.000160546 -0.000330115 0 
170 1 -2.80631e-005 -0.000136853 0 
249 1 -1.01448e-005 0.000125475 0 
172 1 -0.000177091 -0.000176115 0 
251 1 -0.000166814 -6.32709e-005 0 
253 1 0.000273723 0.000122619 0 
174 1 0.000322496 0.000368207 0 
255 1 0.000324301 -0.000573659 0 
176 1 -0.000176295 0.000376007 0 
178 1 -0.000330931 -5.11069e-005 0 
257 1 -0.00038764 -0.000383751 0 
180 1 0.00016881 0.000364207 0 
259 1 0.000357838 7.28645e-005 0 
182 1 0.000197014 -0.000196727 0 
261 1 -0.000355275 -0.000125146 0 
263 1 0.000165327 -0.000324478 0 
184 1 6.15383e-005 -5.09789e-005 0 
265 1 -0.000197164 -0.000189874 0 
186 1 -0.00012616 -0.000280429 0 
188 1 -0.000147129 3.56657e-005 0 
267 1 0.0003458 6.02856e-005 0 
190 1 -1.96823e-005 -0.000171432 0 
269 1 -5.82906e-006 -7.96695e-005 0 
192 1 -0.000267446 0.000219705 0 
271 1 0.00036476 -1.41917e-005 0 
273 1 -0.000236296 -0.000196118 0 
194 1 0.000195778 -4.95412e-005 0 
275 1 9.69324e-005 -0.000192015 0 
196 1 0.000169554 -0.000109246 0 
198 1 -0.000156394 -8.63436e-005 0 
277 1 -0.000188859 -7.91087e-005 0 
200 1 -9.93081e-005 0.000503718 0 
279 1 0.000288291 -0.000345814 0 
202 1 0.000102343 0.000133031 0 
281 1 9.92077e-005 -6.09926e-005 0 
283 1 -0.000225755 -8.93564e-005 0 
204 1 -0.00031945 9.32546e-005 0 
285 1 0.000252058 0.000152113 0 
206 1 0.000351832 0.000302437 0 
208 1 3.81619e-005 7.40098e-006 0 
287 1 -0.000298264 -3.39837e-005 0 
210 1 -1.77578e-005 -0.000472317 0 
289 1 -5.92247e-005 9.74219e-005 0 
212 1 -0.000239257 0.000174708 0 
291 1 6.16728e-005 0.000132374 0 
293 1 5.72596e-005 -1.87006e-005 0 
214 1 -0.000115139 0.000105083 0 
295 1 0.000156129 9.42416e-005 0 
216 1 -0.000138763 4.4511e-005 0 
218 1 0.000284224 0.000250729 0 
297 1 0.00016831 3.30117e-005 0 
220 1 -7.99901e-005 2.29936e-005 0 
299 1 -6.13726e-005 3.91512e-005 0 
222 1 -0.000116932 0.000543755 0 
301 1 0.000168015 -0.000291881 0 
303 1 8.01684e-005 -1.92733e-006 0 
224 1 2.21923e-005 7.79204e-005 0 
305 1 0.000123344 -0.00025376 0 
226 1 -0.000144514 0.000316236 0 
228 1 -0.000221495 -0.00025032 0 
307 1 7.27978e-005 -8.02755e-005 0 
230 1 0.000147477 0.000226141 0 
309 1 0.000193248 -0.000222043 0 
232 1 0.000101315 1.10922e-005 0 
311 1 -0.000108653 0.000247341 0 
313 1 -5.69136e-005 0.000203828 0 
234 1 1.63164e-005 -0.000259982 0 
315 1 -0.000262679 4.28495e-005 0 
236 1 -0.000176025 -0.000412577 0 
238 1 -0.000161336 0.000402456 0 
317 1 0.000439464 -4.52886e-005 0 
240 1 2.44251e-005 0.000490126 0 
319 1 2.41283e-005 -0.000392487 0 
242 1 -6.92911e-005 -0.00016823 0 
244 1 0.00033211 0.000204683 0 
246 1 -0.000232558 0.000197413 0 
248 1 0.000250638 -0.000185989 0 
250 1 -0.000107908 0.000330626 0 
252 1 -0.000151001 0.00027105 0 
254 1 -0.000121577 0.00014639 0 
256 1 -0.00014019 4.16227e-005 0 
258 1 0.000352004 -4.07725e-005 0 
260 1 -6.36855e-005 0.000216652 0 
262 1 -0.000226335 0.000310269 0 
264 1 4.89733e-005 0.000278713 0 
266 1 0.000152181 0.000298762 0 
268 1 -0.000346882 0.000244535 0 
270 1 -0.000120306 8.45938e-005 0 
272 1 -0.000140705 -2.11781e-005 0 
274 1 -8.72099e-006 0.000330393 0 
276 1 7.08644e-005 0.00030286 0 
278 1 -9.79651e-006 6.62884e-005 0 
280 1 0.000150314 0.000170585 0 
282 1 -0.000261075 -9.69112e-005 0 
284 1 9.85127e-005 0.000134646 0 
286 1 -8.83777e-005 -0.000538428 0 
288 1 0.000173162 -0.0001549 0 
290 1 -5.66748e-005 1.88863e-005 0 
292 1 0.000190403 -0.000324188 0 
294 1 5.14516e-005 0.000235309 0 
296 1 -0.000315799 0.00019327 0 
298 1 3.58083e-005 0.000181145 0 
300 1 -0.000111528 -0.000126396 0 
302 1 0.000189677 -0.00021965 0 
304 1 -0.000245415 -2.36877e-005 0 
306 1 -6.5013e-005 0.00017307 0 
308 1 -0.000144686 -6.25811e-005 0 
310 1 0.000146249 -6.85373e-005 0 
312 1 5.6424e-006 -0.000403531 0 
314 1 0.000128295 -0.000129435 0 
316 1 0.000245089 0.000403967 0 
318 1 -0.000491751 -0.000142466 0 
320 1 0.000275759 -0.000173934 0 
321 1 7.72134e-005 -2.6828e-005 0 
322 1 0.000228985 1.50539e-005 0 
323 1 5.19746e-005 9.33165e-006 0 
324 1 -0.000182999 -9.96854e-005 0 
325 1 -0.000195762 -0.000303327 0 
326 1 0.000223092 -0.000129311 0 
327 1 0.000112541 0.000369744 0 
328 1 -0.000190297 -0.000130527 0 
329 1 0.00017828 -0.000155356 0 
330 1 -0.000152878 0.000274362 0 
331 1 -8.49505e-005 -0.000195399 0 
332 1 0.000152058 -0.000457835 0 
333 1 -8.62681e-005 0.000121756 0 
334 1 7.20739e-005 -0.000121559 0 
335 1 0.000188483 0.000138249 0 
336 1 0.000185292 -0.000331947 0 
337 1 -0.000386147 0.000240816 0 
338 1 2.1863e-005 0.000103268 0 
339 1 0.000125452 -0.000196062 0 
340 1 1.8169e-005 0.000267093 0 
341 1 0.000114238 -0.000473923 0 
342 1 -0.000269461 0.000219555 0 
343 1 0.000133179 -0.000352177 0 
344 1 0.000272146 0.00011398 0 
345 1 -8.8684e-005 5.09734e-005 0 
346 1 -0.000193353 0.000199035 0 
347 1 0.000192735 -0.000591888 0 
348 1 0.000136407 -1.82799e-005 0 
349 1 0.000182267 5.36061e-005 0 
350 1 -7.30958e-005 -0.000305559 0 
351 1 -0.000162189 -9.00835e-005 0 
352 1 5.98624e-005 0.000380065 0 
353 1 0.0001482 -0.000153125 0 
354 1 4.70906e-005 0.000222016 0 
355 1 0.00013237 -5.29659e-005 0 
356 1 -5.74414e-005 0.000327744 0 
357 1 -0.000181677 -0.000316388 0 
358 1 -2.04173e-005 -1.02964e-005 0 
359 1 0.000257402 0.000311306 0 
360 1 -0.000177205 -0.000308676 0 
361 1 -0.000255055 -0.000145793 0 
362 1 9.92548e-005 1.31293e-005 0 
363 1 0.000249145 7.35714e-005 0 
364 1 0.000121808 -9.15092e-005 0 
365 1 -0.000242913 0.000239294 0 
366 1 1.53577e-006 0.000332154 0 
367 1 1.56673e-005 0.000453844 0 
368 1 -3.32637e-005 -0.000313914 0 
369 1 -0.000131815 2.39975e-005 0 
370 1 8.16598e-005 -0.00013375 0 
371 1 4.69633e-005 0.000248908 0 
372 1 2.38508e-005 -5.23117e-005 0 
373 1 -4.68715e-005 8.01436e-005 0 
374 1 -0.000322857 0.000343185 0 
375 1 3.07581e-006 -0.000582638 0 
376 1 0.000407759 -0.000191005 0 
377 1 0.000243391 0.000154234 0 
378 1 -0.000129381 -0.000299433 0 
379 1 -0.000369682 8.04542e-005 0 
380 1 0.000190949 -0.000146812 0 
381 1 6.30372e-005 0.000453345 0 
382 1 -0.000310713 -8.20566e-005 0 
383 1 0.000146701 2.58185e-005 0 
384 1 0.000163901 -4.0934e-005 0 
385 1 -5.18134e-005 0.000170938 0 
386 1 -0.000218013 -6.73116e-005 0 
387 1 -0.000137215 8.40691e-005 0 
388 1 0.000201059 -0.00030258 0 
389 1 0.000102399 0.000177863 0 
390 1 -0.000182303 -0.000165402 0 
391 1 -0.000116093 0.000336875 0 
392 1 3.89399e-005 -0.000138624 0 
393 1 -6.72268e-005 0.000127221 0 
394 1 0.000206129 -0.000240939 0 
395 1 -0.000129114 -5.22494e-005 0 
396 1 7.57498e-005 -0.000154251 0 
397 1 -3.92368e-005 -0.000115573 0 
398 1 -9.5933e-005 7.64484e-005 0 
399 1 3.91723e-005 0.000418126 0 
400 1 -0.000277746 0.000174656 0 
401 1 -0.000162193 -0.000169884 0 
403 1 4.3381e-006 0.000276874 0 
405 1 -0.000144371 -6.15175e-005 0 
407 1 0.000132942 0.000229203 0 
409 1 0.000314787 -0.00031333 0 
411 1 -0.00026983 0.000269816 0 
413 1 0.000232121 0.000407773 0 
415 1 -0.000432304 -4.54554e-005 0 
417 1 0.000171719 -0.000145696 0 
419 1 -0.000159995 -9.94541e-005 0 
421 1 -0.000171429 7.49612e-006 0 
423 1 0.000179669 -0.000200684 0 
425 1 -5.78939e-005 1.09952e-005 0 
427 1 -5.47094e-005 0.000248096 0 
429 1 -9.55676e-005 0.000250617 0 
431 1 -3.94414e-006 -0.000137572 0 
433 1 0.000151019 -0.000249578 0 
435 1 -0.000216946 -0.000301247 0 
437 1 0.000179052 -0.000286718 0 
439 1 -6.70492e-006 -0.000146626 0 
441 1 -0.000176136 0.000188653 0 
443 1 0.000126877 -0.000200995 0 
445 1 0.000281599 -0.000329341 0 
447 1 -0.000198984 -0.000238124 0 
449 1 -0.000162517 0.000143988 0 
451 1 -5.97951e-005 0.000193375 0 
453 1 0.000220846 -0.000105321 0 
455 1 -0.000358084 3.73892e-005 0 
457 1 0.000171406 7.15598e-005 0 
459 1 -9.93717e-005 -0.00020052 0 
461 1 0.00037207 -0.000125328 0 
463 1 -0.000317359 -0.000428978 0 
465 1 0.000341372 -8.3387e-005 0 
467 1 -0.000345857 1.84557e-005 0 
469 1 0.000359752 0.000182321 0 
471 1 -2.05208e-005 0.00010003 0 
473 1 -0.000111675 0.000199841 0 
475 1 -6.27024e-005 0.000196827 0 
477 1 0.000219663 1.8741e-005 0 
479 1 5.49138e-005 9.36195e-005 0 
402 1 0.000223096 0.000112065 0 
481 1 -3.62399e-005 0.000260786 0 
483 1 -0.000209283 0.000139025 0 
404 1 -0.000177529 -0.000168329 0 
485 1 3.65174e-005 -0.000239446 0 
406 1 0.000233265 -7.74456e-006 0 
408 1 -1.79614e-005 0.000263264 0 
487 1 0.000102326 -0.00018069 0 
410 1 -0.000149633 0.000122271 0 
489 1 -2.80986e-005 -0.000339348 0 
412 1 -0.000160688 -8.54464e-005 0 
491 1 -5.9954e-006 -0.000288859 0 
493 1 0.000191992 0.000180689 0 
414 1 -0.000117885 -0.00023864 0 
495 1 7.48488e-005 -6.62589e-005 0 
416 1 0.00020288 0.000462302 0 
418 1 0.000234505 0.000189037 0 
497 1 -0.000290101 -0.000285619 0 
420 1 -0.000136938 5.80808e-006 0 
499 1 1.24304e-005 -2.79898e-005 0 
422 1 6.47622e-005 0.000294369 0 
501 1 1.319e-006 2.85402e-005 0 
503 1 4.12021e-005 -0.00050591 0 
424 1 -7.54644e-006 0.000278312 0 
505 1 -6.54846e-005 -6.73218e-005 0 
426 1 0.000248432 -4.92511e-005 0 
428 1 -0.000334022 -2.70717e-005 0 
507 1 0.000286507 -0.000248236 0 
430 1 0.00017646 -0.000144566 0 
509 1 -0.000266299 5.54474e-005 0 
432 1 -0.000212516 -2.66549e-005 0 
511 1 0.000171799 0.000289252 0 
513 1 0.00023116 0.00028123 0 
434 1 0.000178877 3.53919e-005 0 
515 1 -0.000302777 -4.97241e-005 0 
436 1 0.000182872 0.000276399 0 
438 1 -9.64874e-005 0.000172773 0 
517 1 0.000154538 1.50206e-005 0 
440 1 -0.000104574 3.12235e-005 0 
519 1 -0.000303291 -0.000326259 0 
442 1 0.000199297 0.000134547 0 
521 1 0.000161195 0.000119301 0 
523 1 -4.90403e-005 -2.0151e-005 0 
444 1 -0.000208991 8.59535e-005 0 
525 1 0.000219765 0.000179117 0 
446 1 -1.98731e-005 0.000207792 0 
448 1 -2.07191e-005 -0.000398174 0 
527 1 -0.000144854 0.000406406 0 
450 1 0.000162056 9.01189e-005 0 
529 1 7.70985e-005 0.000293099 0 
452 1 -5.78478e-005 -0.000198811 0 
531 1 -0.000103588 1.65573e-005 0 
533 1 0.000101704 6.05256e-005 0 
454 1 2.73988e-005 8.24338e-006 0 
535 1 0.000129708 0.000142274 0 
456 1 4.73438e-007 0.000202052 0 
458 1 -3.07949e-005 0.000106921 0 
537 1 4.48534e-005 -0.000112849 0 
460 1 -7.82174e-005 0.000375547 0 
539 1 0.000105012 -9.68845e-005 0 
462 1 -0.00028826 5.81495e-005 0 
541 1 -7.31574e-005 0.00025705 0 
543 1 -0.000175328 0.000277714 0 
464 1 0.000390067 0.000408379 0 
545 1 -0.000214052 -0.000156035 0 
466 1 0.000165437 -5.39917e-005 0 
468 1 -8.87155e-006 0.000166294 0 
547 1 -0.000192398 -0.000211566 0 
470 1 -9.5042e-005 -7.24774e-005 0 
549 1 0.00013706 -9.77272e-005 0 
472 1 0.000138455 0.000132722 0 
551 1 5.04806e-005 -8.99616e-005 0 
553 1 -0.000220344 -0.000113509 0 
474 1 -0.000156127 3.59852e-006 0 
555 1 7.16382e-005 -0.000115644 0 
476 1 5.88108e-005 -9.5182e-005 0 
478 1 -0.000169473 -0.000118124 0 
557 1 0.000106489 -0.000223325 0 
480 1 6.68652e-005 -0.000146447 0 
559 1 -0.000110638 -9.39856e-005 0 
482 1 2.38579e-006 -0.000409642 0 
484 1 -0.000120638 0.000532162 0 
486 1 0.000272081 3.18902e-005 0 
488 1 -0.000238138 0.000201625 0 
490 1 -7.41702e-005 0.000141332 0 
492 1 0.000264249 -4.91471e-005 0 
494 1 -1.12234e-005 -0.000166165 0 
496 1 1.78311e-005 0.000171589 0 
498 1 0.00028635 0.000313138 0 
500 1 -0.000240015 0.000147884 0 
502 1 -0.000291897 9.9373e-005 0 
504 1 0.00030243 -4.4466e-005 0 
506 1 -0.000238779 6.26429e-005 0 
508 1 -0.000127208 -0.000139389 0 
510 1 0.0002372 -4.43616e-005 0 
512 1 -0.000320437 -5.41583e-005 0 
514 1 -4.6632e-005 -0.000431072 0 
516 1 0.000180797 -2.85015e-005 0 
518 1 -0.000378115 -0.000366618 0 
520 1 0.000425877 9.78801e-005 0 
522 1 -0.000110632 0.000201564 0 
524 1 -0.000174115 -0.000195431 0 
526 1 9.97918e-005 -0.000528981 0 
528 1 0.000106666 -0.000362624 0 
530 1 1.05917e-005 -0.00012528 0 
532 1 -9.87052e-005 4.73773e-005 0 
534 1 3.38124e-005 -1.27227e-005 0 
536 1 -0.000290054 -0.000145069 0 
538 1 9.52742e-005 -0.000129749 0 
540 1 -7.30365e-005 -0.000195971 0 
542 1 0.000216258 -0.000418991 0 
544 1 2.64078e-005 -2.70213e-005 0 
546 1 -5.01255e-006 0.000426881 0 
548 1 0.000177878 9.92415e-005 0 
550 1 4.46094e-005 0.000397988 0 
552 1 -0.000118873 -6.04238e-005 0 
554 1 2.84008e-005 -0.000153218 0 
556 1 0.000191003 0.00029569 0 
558 1 -2.55018e-006 0.0004369 0 
560 1 0.000119613 0.000142959 0 
561 1 -0.000383423 0.000193446 0 
562 1 1.18637e-005 0.000443157 0 
563 1 0.000545079 -0.000283337 0 
564 1 -0.000192993 -0.000167191 0 
565 1 -0.000433197 -4.43166e-005 0 
566 1 0.000195309 5.68251e-005 0 
567 1 0.000127465 -0.000221874 0 
568 1 0.000133621 1.40812e-007 0 
569 1 0.000109978 0.000229394 0 
570 1 -0.000213283 -0.000170567 0 
571 1 -0.000126916 0.000365253 0 
572 1 -0.000113645 -0.000338903 0 
573 1 4.20105e-005 0.000278758 0 
574 1 -2.30552e-005 -0.000238978 0 
575 1 -0.000224911 -0.00012837 0 
576 1 8.45715e-005 -3.52717e-005 0 
577 1 0.0001264 -0.0001448 0 
578 1 -0.000293134 0.00020848 0 
579 1 6.22221e-005 -0.000480758 0 
580 1 0.000266787 -8.46667e-005 0 
581 1 -3.76947e-005 9.9213e-006 0 
582 1 -0.0002919 -0.00021636 0 
583 1 7.95099e-005 5.33323e-005 0 
584 1 6.86936e-005 5.86131e-005 0 
585 1 6.66717e-005 0.000164791 0 
586 1 9.58999e-005 -0.000243652 0 
587 1 5.74112e-005 3.79916e-005 0 
588 1 -2.29491e-005 0.000456444 0 
589 1 2.79497e-005 -0.000122154 0 
590 1 7.2076e-006 8.57147e-005 0 
591 1 -6.73844e-005 7.60384e-005 0 
592 1 0.000207003 -0.0002602 0 
593 1 8.25504e-006 0.000306119 0 
594 1 -9.32015e-005 -1.15231e-005 0 
595 1 -7.92976e-005 0.000411871 0 
596 1 -0.000310955 -0.000367328 0 
597 1 6.20887e-005 1.4417e-005 0 
598 1 0.000387704 -0.000330834 0 
599 1 6.4123e-005 0.000570171 0 
600 1 -0.000277997 -0.00036238 0 
601 1 0.000160906 -1.65723e-005 0 
602 1 0.00012288 -0.000255739 0 
603 1 -0.000165715 0.000143466 0 
604 1 -0.000246209 -0.000174769 0 
605 1 8.83258e-005 0.000196632 0 
606 1 7.15941e-005 -0.000462297 0 
607 1 3.40525e-006 0.000568677 0 
608 1 7.64617e-005 -0.000388054 0 
609 1 -0.000241828 2.10421e-005 0 
610 1 -1.55576e-005 0.000400737 0 
611 1 0.000198203 -0.000118784 0 
612 1 0.000123749 -0.000138226 0 
613 1 4.12237e-005 2.30925e-005 0 
614 1 -4.83769e-005 0.000309745 0 
615 1 -0.000137406 -0.00029335 0 
616 1 4.82252e-005 0.000109148 0 
617 1 5.92171e-005 0.000132786 0 
618 1 0.000178273 -1.85205e-005 0 
619 1 0.000174523 8.42967e-005 0 
620 1 -0.000127948 0.000171655 0 
621 1 -0.000276885 0.000101261 0 
622 1 0.000166325 6.8188e-005 0 
623 1 -0.000126723 -0.00012804 0 
624 1 0.000151551 0.000134663 0 
625 1 0.000108074 -0.000199538 0 
626 1 -0.000171338 0.000127566 0 
627 1 -8.35151e-005 -0.000448889 0 
628 1 0.000227962 0.000460265 0 
629 1 7.5604e-005 -0.000351068 0 
630 1 0.000170534 -8.58884e-005 0 
631 1 -0.000128579 -0.00014358 0 
632 1 -0.000253349 0.000150654 0 
633 1 -0.000174066 0.000162299 0 
634 1 0.000113798 0.000289878 0 
635 1 0.000208677 -0.000259366 0 
636 1 -0.000181338 0.000275936 0 
637 1 -0.000141544 -0.000490426 0 
638 1 0.000262871 0.000511681 0 
639 1 -6.28865e-005 -0.000439165 0 
640 1 0.000264938 -2.30254e-005 0 
641 1 -2.45243e-005 -0.000464414 0 
643 1 -0.000146746 -9.32291e-005 0 
645 1 1.44347e-005 4.32036e-005 0 
647 1 -9.06761e-005 -0.000219503 0 
649 1 4.32486e-005 -0.000420175 0 
651 1 2.54283e-006 2.40282e-005 0 
653 1 2.66417e-006 0.000214709 0 
655 1 0.000121686 -8.21066e-005 0 
657 1 0.000183143 8.27325e-005 0 
659 1 -1.22218e-005 0.000108334 0 
661 1 -0.000200255 0.000143495 0 
663 1 0.000298054 0.000275462 0 
665 1 -0.000264131 -0.000207552 0 
667 1 0.00029478 -0.000225304 0 
669 1 -0.000159456 -0.000279003 0 
671 1 0.000112851 8.94453e-005 0 
673 1 0.000305914 -0.000143035 0 
675 1 -0.00018704 0.000272152 0 
677 1 -4.84571e-005 0.000313071 0 
679 1 -5.89726e-005 8.60218e-005 0 
681 1 0.000275645 0.000209436 0 
683 1 -0.000161589 -8.691e-005 0 
685 1 -4.21596e-005 2.69542e-005 0 
687 1 0.00019633 0.000403983 0 
689 1 0.000113198 9.19963e-005 0 
691 1 -0.000285027 -0.000237014 0 
693 1 0.00018731 -0.000107337 0 
695 1 -0.000246118 -7.85262e-005 0 
697 1 7.62895e-005 0.000392444 0 
699 1 6.09888e-005 -0.000384791 0 
701 1 0.000183789 0.00017127 0 
703 1 -0.000249078 -0.000164692 0 
705 1 9.18863e-006 -7.62965e-005 0 
707 1 0.000127452 0.00018462 0 
709 1 -0.000272464 -0.000476861 0 
711 1 0.000221809 -7.60656e-005 0 
713 1 -3.42444e-006 0.000191865 0 
715 1 -6.65807e-005 -0.000423336 0 
717 1 0.000117055 1.70268e-005 0 
719 1 -0.000175524 -0.000304374 0 
642 1 0.000193302 0.000448676 0 
721 1 0.000231109 -0.000197766 0 
723 1 -0.000256699 -0.000404174 0 
644 1 1.64446e-005 0.000176976 0 
725 1 0.000262369 -1.93694e-005 0 
646 1 -0.000161111 0.000141479 0 
648 1 4.11862e-005 0.000337168 0 
727 1 -0.00015901 -0.000211624 0 
650 1 0.000139924 0.000227927 0 
729 1 -4.98773e-005 0.000132316 0 
652 1 0.000184306 -0.000197502 0 
731 1 -0.000137627 0.000165791 0 
733 1 8.51163e-005 -0.00031205 0 
654 1 -0.000175926 6.69471e-005 0 
735 1 6.21143e-005 0.000187275 0 
656 1 -9.41112e-005 -0.000101804 0 
658 1 -6.33393e-005 -1.14584e-005 0 
737 1 6.0644e-005 0.000208051 0 
660 1 0.000163336 -0.00032339 0 
739 1 -3.831e-006 0.000192505 0 
662 1 -1.46041e-005 -0.000172079 0 
741 1 -7.9958e-005 -2.86177e-005 0 
743 1 0.000265613 0.00041855 0 
664 1 -8.34355e-005 0.000118551 0 
745 1 -0.00017832 -9.64004e-005 0 
666 1 -0.000109748 0.00040548 0 
668 1 0.000125617 -1.99913e-005 0 
747 1 7.3013e-005 -5.44042e-006 0 
670 1 -0.000201898 9.61472e-005 0 
749 1 1.23322e-005 -8.14373e-005 0 
672 1 -0.00014186 0.000161683 0 
751 1 0.000279788 -6.90646e-005 0 
753 1 -9.19591e-005 -0.000171059 0 
674 1 -8.05459e-005 -0.000229744 0 
755 1 0.000188946 -5.69769e-006 0 
676 1 -0.000144731 -4.77753e-005 0 
678 1 0.000130316 -3.9692e-005 0 
757 1 -0.000211652 0.000212239 0 
680 1 -8.11661e-005 7.82007e-005 0 
759 1 0.000269733 0.000151258 0 
682 1 -5.17324e-005 0.000339188 0 
761 1 -8.81537e-005 -0.000266334 0 
763 1 8.49427e-005 -0.000345808 0 
684 1 6.27494e-005 0.000256432 0 
765 1 1.4182e-005 -0.000290416 0 
686 1 2.54717e-005 0.00024259 0 
688 1 -0.000127115 -0.000415502 0 
767 1 -0.000131368 0.000289885 0 
690 1 -1.71465e-005 9.91502e-005 0 
769 1 0.000218166 0.000307726 0 
692 1 5.17638e-006 -0.000182353 0 
771 1 -0.000342249 -7.06197e-005 0 
773 1 0.000140723 -0.000184587 0 
694 1 8.5856e-005 0.000153695 0 
775 1 -3.02337e-005 8.99736e-005 0 
696 1 0.000234155 -0.000110659 0 
698 1 -0.000247079 -0.000184324 0 
777 1 -0.000165972 -0.000269835 0 
700 1 -9.93402e-005 3.15689e-005 0 
779 1 -2.4565e-005 0.000313791 0 
702 1 -9.47388e-005 -0.000236888 0 
781 1 0.000315134 0.000298199 0 
783 1 -0.000156561 0.000180179 0 
704 1 -4.29448e-006 0.000296744 0 
785 1 4.86314e-005 -0.000448627 0 
706 1 4.16039e-005 3.29088e-005 0 
708 1 -0.000269179 -5.24137e-005 0 
787 1 -0.000217866 0.000182783 0 
710 1 0.000346192 0.000354387 0 
789 1 0.000195744 -0.000137298 0 
712 1 -0.000160627 -6.90646e-005 0 
791 1 0.000166027 -0.000189729 0 
793 1 -1.61956e-005 -0.000279594 0 
714 1 -0.000171383 0.000209885 0 
795 1 5.52845e-005 0.000189151 0 
716 1 -7.91328e-005 -0.00015342 0 
718 1 0.000121235 -0.000145527 0 
797 1 -0.000161947 0.000200165 0 
720 1 -0.000119911 0.000287656 0 
799 1 0.000241612 -8.62044e-005 0 
722 1 -0.000218036 -6.95954e-005 0 
801 1 0.000157777 -8.58193e-005 0 
802 1 5.66368e-005 0.000121293 0 
724 1 0.000123592 0.000194535 0 
803 1 5.55224e-005 -0.000124122 0 
726 1 -0.000166547 1.85576e-005 0 
728 1 0.000219149 -0.00024297 0 
804 1 -0.000233506 0.000167843 0 
730 1 4.61381e-005 3.91592e-006 0 
805 1 0.000285742 4.60635e-005 0 
732 1 -6.81099e-005 0.000373557 0 
806 1 -0.000120019 -0.000167381 0 
807 1 -0.000125793 -0.000110271 0 
734 1 -7.70283e-005 -9.5472e-005 0 
808 1 0.000262098 4.44262e-005 0 
736 1 6.69196e-005 6.65701e-005 0 
738 1 -3.22078e-005 -6.85155e-005 0 
809 1 -0.000170789 -3.06747e-006 0 
740 1 -0.000203607 -7.7417e-005 0 
810 1 -6.02297e-005 -5.5613e-005 0 
742 1 0.000128314 -0.000401011 0 
811 1 3.12073e-005 0.000185162 0 
812 1 0.000183465 0.000281601 0 
744 1 7.12403e-005 -0.000399851 0 
813 1 -0.000227007 0.000110008 0 
746 1 -0.000138345 -0.000181309 0 
748 1 -0.000184619 -0.00017622 0 
814 1 0.000127683 0.000129917 0 
750 1 9.97308e-005 -0.000137437 0 
815 1 5.07226e-006 0.000233366 0 
752 1 -0.000296469 -9.85516e-005 0 
816 1 0.000155075 -4.34758e-005 0 
817 1 0.000108184 0.000140363 0 
754 1 9.56144e-005 0.000257324 0 
818 1 -5.09067e-005 -6.40193e-005 0 
756 1 -9.22064e-005 -9.40515e-005 0 
758 1 0.000145425 0.000106767 0 
819 1 -63.9734 -133.856 0 
760 1 -0.000118061 -0.000271028 0 
820 1 -128.062 -535.903 0 
762 1 0.000130922 -0.000145693 0 
821 1 0.000286842 -752.873 0 
822 1 128.061 -535.899 0 
764 1 -0.000147332 0.000296389 0 
823 1 63.9734 -133.855 0 
766 1 0.00016149 0.000131034 0 
768 1 -5.69693e-005 -0.00015686 0 
824 1 1.4591e-007 -0.000155844 0 
770 1 -0.000162963 -0.000140768 0 
825 1 1.40205e-005 0.000101346 0 
772 1 -2.53192e-005 0.000215343 0 
826 1 -0.00013772 -3.04562e-005 0 
827 1 0.000115228 2.89661e-005 0 
774 1 0.000322224 0.000188849 0 
828 1 -0.000104315 -7.31241e-005 0 
776 1 -0.000267518 -5.15008e-005 0 
778 1 0.000399398 0.00021173 0 
829 1 8.88905e-005 -3.13971e-005 0 
780 1 -0.00027422 -0.000374574 0 
830 1 -0.000107351 -4.25553e-005 0 
782 1 0.000237356 -0.000383899 0 
831 1 -4.30883e-005 0.000213818 0 
832 1 0.000123731 -0.000132491 0 
784 1 -0.000393936 0.00032252 0 
833 1 0.000157554 -5.80944e-006 0 
786 1 0.000236046 -9.09398e-005 0 
788 1 -5.76505e-005 0.000265154 0 
834 1 -3.88916e-005 2.05089e-005 0 
790 1 -7.47551e-005 0.00025642 0 
835 1 -0.00021612 -0.00016463 0 
792 1 -0.000118058 -8.19594e-006 0 
836 1 0.000129412 -0.000122785 0 
837 1 9.48707e-005 -3.83611e-005 0 
794 1 0.000172661 0.000173988 0 
838 1 6.60603e-005 -0.000171924 0 
796 1 -5.75463e-005 0.00017339 0 
798 1 -0.000168038 0.000166605 0 
839 1 -5.32608e-006 -0.000165262 0 
800 1 -8.89006e-005 0.00018572 0 
840 1 -0.000137683 -4.5061e-005 0 
ITEM: TIMESTEP
1
ITEM: NUMBER OF ATOMS
840
ITEM: BOX BOUNDS pp ss pp
0 45.3078
-0.00192204 19.2185
-0.283174 0.283174
ITEM: ATOMS id type fx fy fz 
1 2 0 0 0 
2 2 0 0 0 
3 2 0 0 0 
4 2 0 0 0 
5 2 0 0 0 
6 2 0 0 0 
7 2 0 0 0 
8 2 0 0 0 
9 2 0 0 0 
10 2 0 0 0 
11 2 0 0 0 
12 2 0 0 0 
13 2 0 0 0 
14 2 0 0 0 
15 2 0 0 0 
16 2 0 0 0 
17 2 0 0 0 
18 2 0 0 0 
19 2 0 0 0 
20 2 0 0 0 
21 2 0 0 0 
22 2 0 0 0 
23 2 0 0 0 
24 2 0 0 0 
25 2 0 0 0 
26 2 0 0 0 
27 2 0 0 0 
28 2 0 0 0 
29 2 0 0 0 
30 2 0 0 0 
31 2 0 0 0 
32 2 0 0 0 
33 2 0 0 0 
34 2 0 0 0 
35 2 0 0 0 
36 2 0 0 0 
37 2 0 0 0 
38 2 0 0 0 
39 2 0 0 0 
40 2 0 0 0 
41 2 0 0 0 
42 2 0 0 0 
43 2 0 0 0 
44 2 0 0 0 
45 2 0 0 0 
46 2 0 0 0 
47 2 0 0 0 
48 2 0 0 0 
49 2 0 0 0 
50 2 0 0 0 
51 2 0 0 0 
52 2 0 0 0 
53 2 0 0 0 
54 2 0 0 0 
55 2 0 0 0 
56 2 0 0 0 
57 2 0 0 0 
58 2 0 0 0 
59 2 0 0 0 
60 2 0 0 0 
61 2 0 0 0 
62 2 0 0 0 
63 2 0 0 0 
64 2 0 0 0 
65 2 0 0 0 
66 2 0 0 0 
67 2 0 0 0 
68 2 0 0 0 
69 2 0 0 0 
70 2 0 0 0 
71 2 0 0 0 
72 2 0 0 0 
73 2 0 0 0 
74 2 0 0 0 
75 2 0 0 0 
76 2 0 0 0 
77 2 0 0 0 
78 2 0 0 0 
79 2 0 0 0 
80 2 0 0 0 
81 2 0 0 0 
82 1 -0.000128004 4.76462e-005 0 
83 2 0 0 0 
84 1 -2.56635e-005 -0.000412136 0 
85 2 0 0 0 
86 1 0.000180058 -0.000432683 0 
87 2 0 0 0 
88 1 -7.06402e-005 -0.000112866 0 
89 2 0 0 0 
90 1 -0.000200066 -0.000258617 0 
91 2 0 0 0 
92 1 -7.96407e-005 -7.60033e-005 0 
93 2 0 0 0 
94 1 -0.000246566 -0.000299469 0 
95 2 0 0 0 
96 1 -4.88805e-005 -0.000138724 0 
97 2 0 0 0 
98 1 0.00022851 -0.000436483 0 
99 2 0 0 0 
100 1 -0.000173291 -0.000226527 0 
101 2 0 0 0 
102 1 -0.000367412 -0.00024187 0 
103 2 0 0 0 
104 1 0.000316448 -0.000370178 0 
105 2 0 0 0 
106 1 -0.000369473 -0.000548338 0 
107 2 0 0 0 
108 1 0.000136706 -0.000222249 0 
109 2 0 0 0 
110 1 -0.000263803 -0.000330541 0 
111 2 0 0 0 
112 1 0.000313314 0.000210928 0 
113 2 0 0 0 
114 1 -0.000473411 -0.00031762 0 
115 2 0 0 0 
116 1 0.000326328 -0.000403537 0 
117 2 0 0 0 
118 1 -0.000315323 -0.000123296 0 
119 2 0 0 0 
120 1 0.000104553 -0.000579542 0 
121 2 0 0 0 
122 1 -0.000111907 0.000211714 0 
123 2 0 0 0 
124 1 -5.82237e-007 -0.000186746 0 
125 2 0 0 0 
126 1 0.000158035 -0.000350596 0 
127 2 0 0 0 
128 1 -0.000289506 5.76465e-005 0 
129 2 0 0 0 
130 1 -0.000343065 0.000156189 0 
131 2 0 0 0 
132 1 0.000310461 -0.000350043 0 
133 2 0 0 0 
134 1 -0.000344551 -0.000141736 0 
135 2 0 0 0 
136 1 -6.54897e-005 -0.000210136 0 
137 2 0 0 0 
138 1 0.000211512 3.36558e-005 0 
139 2 0 0 0 
140 1 -0.000199043 -0.000314531 0 
141 2 0 0 0 
142 1 7.44562e-005 0.000140587 0 
143 2 0 0 0 
144 1 -0.000234042 -0.000150478 0 