LAMMPS data file from restart file: timestep = 13, procs = 1

840 atoms

2 atom types

0.0000000000000000e+00 4.5307846529256608e+01 xlo xhi
-1.9220507115284495e-03 1.9218505391387513e+01 ylo yhi
-2.8317404080785380e-01 2.8317404080785380e-01 zlo zhi

Masses

1 1
2 1

Pair Coeffs

1 1 1
2 1 1

Atoms

1	2	0.0	0.0	0.0	0	0	0
2	2	0.566348081616	0.980943652128	0.0	0	0	0
3	2	1.13269616323	0.0	0.0	0	0	0
4	2	1.69904424485	0.980943652128	0.0	0	0	0
5	2	2.26539232646	0.0	0.0	0	0	0
6	2	2.83174040808	0.980943652128	0.0	0	0	0
7	2	3.39808848969	0.0	0.0	0	0	0
8	2	3.96443657131	0.980943652128	0.0	0	0	0
9	2	4.53078465293	0.0	0.0	0	0	0
10	2	5.09713273454	0.980943652128	0.0	0	0	0
11	2	5.66348081616	0.0	0.0	0	0	0
12	2	6.22982889777	0.980943652128	0.0	0	0	0
13	2	6.79617697939	0.0	0.0	0	0	0
14	2	7.362525061	0.980943652128	0.0	0	0	0
15	2	7.92887314262	0.0	0.0	0	0	0
16	2	8.49522122424	0.980943652128	0.0	0	0	0
17	2	9.06156930585	0.0	0.0	0	0	0
18	2	9.62791738747	0.980943652128	0.0	0	0	0
19	2	10.1942654691	0.0	0.0	0	0	0
20	2	10.7606135507	0.980943652128	0.0	0	0	0
21	2	11.3269616323	0.0	0.0	0	0	0
22	2	11.8933097139	0.980943652128	0.0	0	0	0
23	2	12.4596577955	0.0	0.0	0	0	0
24	2	13.0260058772	0.980943652128	0.0	0	0	0
25	2	13.5923539588	0.0	0.0	0	0	0
26	2	14.1587020404	0.980943652128	0.0	0	0	0
27	2	14.725050122	0.0	0.0	0	0	0
28	2	15.2913982036	0.980943652128	0.0	0	0	0
29	2	15.8577462852	0.0	0.0	0	0	0
30	2	16.4240943669	0.980943652128	0.0	0	0	0
31	2	16.9904424485	0.0	0.0	0	0	0
32	2	17.5567905301	0.980943652128	0.0	0	0	0
33	2	18.1231386117	0.0	0.0	0	0	0
34	2	18.6894866933	0.980943652128	0.0	0	0	0
35	2	19.2558347749	0.0	0.0	0	0	0
36	2	19.8221828565	0.980943652128	0.0	0	0	0
37	2	20.3885309382	0.0	0.0	0	0	0
38	2	20.9548790198	0.980943652128	0.0	0	0	0
39	2	21.5212271014	0.0	0.0	0	0	0
40	2	22.087575183	0.980943652128	0.0	0	0	0
41	2	22.6539232646	0.0	0.0	0	0	0
42	2	23.2202713462	0.980943652128	0.0	0	0	0
43	2	23.7866194279	0.0	0.0	0	0	0
44	2	24.3529675095	0.980943652128	0.0	0	0	0
45	2	24.9193155911	0.0	0.0	0	0	0
46	2	25.4856636727	0.980943652128	0.0	0	0	0
47	2	26.0520117543	0.0	0.0	0	0	0
48	2	26.6183598359	0.980943652128	0.0	0	0	0
49	2	27.1847079176	0.0	0.0	0	0	0
50	2	27.7510559992	0.980943652128	0.0	0	0	0
51	2	28.3174040808	0.0	0.0	0	0	0
52	2	28.8837521624	0.980943652128	0.0	0	0	0
53	2	29.450100244	0.0	0.0	0	0	0
54	2	30.0164483256	0.980943652128	0.0	0	0	0
55	2	30.5827964072	0.0	0.0	0	0	0
56	2	31.1491444889	0.980943652128	0.0	0	0	0
57	2	31.7154925705	0.0	0.0	0	0	0
58	2	32.2818406521	0.980943652128	0.0	0	0	0
59	2	32.8481887337	0.0	0.0	0	0	0
60	2	33.4145368153	0.980943652128	0.0	0	0	0
61	2	33.9808848969	0.0	0.0	0	0	0
62	2	34.5472329786	0.980943652128	0.0	0	0	0
63	2	35.1135810602	0.0	0.0	0	0	0
64	2	35.6799291418	0.980943652128	0.0	0	0	0
65	2	36.2462772234	0.0	0.0	0	0	0
66	2	36.812625305	0.980943652128	0.0	0	0	0
67	2	37.3789733866	0.0	0.0	0	0	0
68	2	37.9453214683	0.980943652128	0.0	0	0	0
69	2	38.5116695499	0.0	0.0	0	0	0
70	2	39.0780176315	0.980943652128	0.0	0	0	0
71	2	39.6443657131	0.0	0.0	0	0	0
72	2	40.2107137947	0.980943652128	0.0	0	0	0
73	2	40.7770618763	0.0	0.0	0	0	0
74	2	41.3434099579	0.980943652128	0.0	0	0	0
75	2	41.9097580396	0.0	0.0	0	0	0
76	2	42.4761061212	0.980943652128	0.0	0	0	0
77	2	43.0424542028	0.0	0.0	0	0	0
78	2	43.6088022844	0.980943652128	0.0	0	0	0
79	2	44.175150366	0.0	0.0	0	0	0
80	2	44.7414984476	0.980943652128	0.0	0	0	0
81	2	0.0	1.96188730426	0.0	0	0	0
82	1	0.566348081616	2.92051042739	0.0	0	0	0
83	2	1.13269616323	1.96188730426	0.0	0	0	0
84	1	1.69904424485	2.92051042739	0.0	0	0	0
85	2	2.26539232646	1.96188730426	0.0	0	0	0
86	1	2.83174040808	2.92051042739	0.0	0	0	0
87	2	3.39808848969	1.96188730426	0.0	0	0	0
88	1	3.96443657131	2.92051042739	0.0	0	0	0
89	2	4.53078465293	1.96188730426	0.0	0	0	0
90	1	5.09713273454	2.92051042739	0.0	0	0	0
91	2	5.66348081616	1.96188730426	0.0	0	0	0
92	1	6.22982889777	2.92051042739	0.0	0	0	0
93	2	6.79617697939	1.96188730426	0.0	0	0	0
94	1	7.362525061	2.92051042739	0.0	0	0	0
95	2	7.92887314262	1.96188730426	0.0	0	0	0
96	1	8.49522122424	2.92051042739	0.0	0	0	0
97	2	9.06156930585	1.96188730426	0.0	0	0	0
98	1	9.62791738747	2.92051042739	0.0	0	0	0
99	2	10.1942654691	1.96188730426	0.0	0	0	0
100	1	10.7606135507	2.92051042739	0.0	0	0	0
101	2	11.3269616323	1.96188730426	0.0	0	0	0
102	1	11.8933097139	2.92051042739	0.0	0	0	0
103	2	12.4596577955	1.96188730426	0.0	0	0	0
104	1	13.0260058772	2.92051042739	0.0	0	0	0
105	2	13.5923539588	1.96188730426	0.0	0	0	0
106	1	14.1587020404	2.92051042739	0.0	0	0	0
107	2	14.725050122	1.96188730426	0.0	0	0	0
108	1	15.2913982036	2.92051042739	0.0	0	0	0
109	2	15.8577462852	1.96188730426	0.0	0	0	0
110	1	16.4240943669	2.92051042739	0.0	0	0	0
111	2	16.9904424485	1.96188730426	0.0	0	0	0
112	1	17.5567905301	2.92051042739	0.0	0	0	0
113	2	18.1231386117	1.96188730426	0.0	0	0	0
114	1	18.6894866933	2.92051042739	0.0	0	0	0
115	2	19.2558347749	1.96188730426	0.0	0	0	0
116	1	19.8221828565	2.92051042739	0.0	0	0	0
117	2	20.3885309382	1.96188730426	0.0	0	0	0
118	1	20.9548790198	2.92051042739	0.0	0	0	0
119	2	21.5212271014	1.96188730426	0.0	0	0	0
120	1	22.087575183	2.92051042739	0.0	0	0	0
121	2	22.6539232646	1.96188730426	0.0	0	0	0
122	1	23.2202713462	2.92051042739	0.0	0	0	0
123	2	23.7866194279	1.96188730426	0.0	0	0	0
124	1	24.3529675095	2.92051042739	0.0	0	0	0
125	2	24.9193155911	1.96188730426	0.0	0	0	0
126	1	25.4856636727	2.92051042739	0.0	0	0	0
127	2	26.0520117543	1.96188730426	0.0	0	0	0
128	1	26.6183598359	2.92051042739	0.0	0	0	0
129	2	27.1847079176	1.96188730426	0.0	0	0	0
130	1	27.7510559992	2.92051042739	0.0	0	0	0
131	2	28.3174040808	1.96188730426	0.0	0	0	0
132	1	28.8837521624	2.92051042739	0.0	0	0	0
133	2	29.450100244	1.96188730426	0.0	0	0	0
134	1	30.0164483256	2.92051042739	0.0	0	0	0
135	2	30.5827964072	1.96188730426	0.0	0	0	0
136	1	31.1491444889	2.92051042739	0.0	0	0	0
137	2	31.7154925705	1.96188730426	0.0	0	0	0
138	1	32.2818406521	2.92051042739	0.0	0	0	0
139	2	32.8481887337	1.96188730426	0.0	0	0	0
140	1	33.4145368153	2.92051042739	0.0	0	0	0
141	2	33.9808848969	1.96188730426	0.0	0	0	0
142	1	34.5472329786	2.92051042739	0.0	0	0	0
143	2	35.1135810602	1.96188730426	0.0	0	0	0
144	1	35.6799291418	2.92051042739	0.0	0	0	0
145	2	36.2462772234	1.96188730426	0.0	0	0	0
146	1	36.812625305	2.92051042739	0.0	0	0	0
147	2	37.3789733866	1.96188730426	0.0	0	0	0
148	1	37.9453214683	2.92051042739	0.0	0	0	0
149	2	38.5116695499	1.96188730426	0.0	0	0	0
150	1	39.0780176315	2.92051042739	0.0	0	0	0
151	2	39.6443657131	1.96188730426	0.0	0	0	0
152	1	40.2107137947	2.92051042739	0.0	0	0	0
153	2	40.7770618763	1.96188730426	0.0	0	0	0
154	1	41.3434099579	2.92051042739	0.0	0	0	0
155	2	41.9097580396	1.96188730426	0.0	0	0	0
156	1	42.4761061212	2.92051042739	0.0	0	0	0
157	2	43.0424542028	1.96188730426	0.0	0	0	0
158	1	43.6088022844	2.92051042739	0.0	0	0	0
159	2	44.175150366	1.96188730426	0.0	0	0	0
160	1	44.7414984476	2.92051042739	0.0	0	0	0
161	1	0.0	3.87886235266	0.0	0	0	0
162	1	0.566348081616	4.8372108534	0.0	0	0	0
163	1	1.13269616323	3.87886235266	0.0	0	0	0
164	1	1.69904424485	4.8372108534	0.0	0	0	0
165	1	2.26539232646	3.87886235266	0.0	0	0	0
166	1	2.83174040808	4.8372108534	0.0	0	0	0
167	1	3.39808848969	3.87886235266	0.0	0	0	0
168	1	3.96443657131	4.8372108534	0.0	0	0	0
169	1	4.53078465293	3.87886235266	0.0	0	0	0
170	1	5.09713273454	4.8372108534	0.0	0	0	0
171	1	5.66348081616	3.87886235266	0.0	0	0	0
172	1	6.22982889777	4.8372108534	0.0	0	0	0
173	1	6.79617697939	3.87886235266	0.0	0	0	0
174	1	7.362525061	4.8372108534	0.0	0	0	0
175	1	7.92887314262	3.87886235266	0.0	0	0	0
176	1	8.49522122424	4.8372108534	0.0	0	0	0
177	1	9.06156930585	3.87886235266	0.0	0	0	0
178	1	9.62791738747	4.8372108534	0.0	0	0	0
179	1	10.1942654691	3.87886235266	0.0	0	0	0
180	1	10.7606135507	4.8372108534	0.0	0	0	0
181	1	11.3269616323	3.87886235266	0.0	0	0	0
182	1	11.8933097139	4.8372108534	0.0	0	0	0
183	1	12.4596577955	3.87886235266	0.0	0	0	0
184	1	13.0260058772	4.8372108534	0.0	0	0	0
185	1	13.5923539588	3.87886235266	0.0	0	0	0
186	1	14.1587020404	4.8372108534	0.0	0	0	0
187	1	14.725050122	3.87886235266	0.0	0	0	0
188	1	15.2913982036	4.8372108534	0.0	0	0	0
189	1	15.8577462852	3.87886235266	0.0	0	0	0
190	1	16.4240943669	4.8372108534	0.0	0	0	0
191	1	16.9904424485	3.87886235266	0.0	0	0	0
192	1	17.5567905301	4.8372108534	0.0	0	0	0
193	1	18.1231386117	3.87886235266	0.0	0	0	0
194	1	18.6894866933	4.8372108534	0.0	0	0	0
195	1	19.2558347749	3.87886235266	0.0	0	0	0
196	1	19.8221828565	4.8372108534	0.0	0	0	0
197	1	20.3885309382	3.87886235266	0.0	0	0	0
198	1	20.9548790198	4.8372108534	0.0	0	0	0
199	1	21.5212271014	3.87886235266	0.0	0	0	0
200	1	22.087575183	4.8372108534	0.0	0	0	0
201	1	22.6539232646	3.87886235266	0.0	0	0	0
202	1	23.2202713462	4.8372108534	0.0	0	0	0
203	1	23.7866194279	3.87886235266	0.0	0	0	0
204	1	24.3529675095	4.8372108534	0.0	0	0	0
205	1	24.9193155911	3.87886235266	0.0	0	0	0
206	1	25.4856636727	4.8372108534	0.0	0	0	0
207	1	26.0520117543	3.87886235266	0.0	0	0	0
208	1	26.6183598359	4.8372108534	0.0	0	0	0
209	1	27.1847079176	3.87886235266	0.0	0	0	0
210	1	27.7510559992	4.8372108534	0.0	0	0	0
211	1	28.3174040808	3.87886235266	0.0	0	0	0
212	1	28.8837521624	4.8372108534	0.0	0	0	0
213	1	29.450100244	3.87886235266	0.0	0	0	0
214	1	30.0164483256	4.8372108534	0.0	0	0	0
215	1	30.5827964072	3.87886235266	0.0	0	0	0
216	1	31.1491444889	4.8372108534	0.0	0	0	0
217	1	31.7154925705	3.87886235266	0.0	0	0	0
218	1	32.2818406521	4.8372108534	0.0	0	0	0
219	1	32.8481887337	3.87886235266	0.0	0	0	0
220	1	33.4145368153	4.8372108534	0.0	0	0	0
221	1	33.9808848969	3.87886235266	0.0	0	0	0
222	1	34.5472329786	4.8372108534	0.0	0	0	0
223	1	35.1135810602	3.87886235266	0.0	0	0	0
224	1	35.6799291418	4.8372108534	0.0	0	0	0
225	1	36.2462772234	3.87886235266	0.0	0	0	0
226	1	36.812625305	4.8372108534	0.0	0	0	0
227	1	37.3789733866	3.87886235266	0.0	0	0	0
228	1	37.9453214683	4.8372108534	0.0	0	0	0
229	1	38.5116695499	3.87886235266	0.0	0	0	0
230	1	39.0780176315	4.8372108534	0.0	0	0	0
231	1	39.6443657131	3.87886235266	0.0	0	0	0
232	1	40.2107137947	4.8372108534	0.0	0	0	0
233	1	40.7770618763	3.87886235266	0.0	0	0	0
234	1	41.3434099579	4.8372108534	0.0	0	0	0
235	1	41.9097580396	3.87886235266	0.0	0	0	0
236	1	42.4761061212	4.8372108534	0.0	0	0	0
237	1	43.0424542028	3.87886235266	0.0	0	0	0
238	1	43.6088022844	4.8372108534	0.0	0	0	0
239	1	44.175150366	3.87886235266	0.0	0	0	0
240	1	44.7414984476	4.8372108534	0.0	0	0	0
241	1	9.52857260696e-16	5.79555931088	0.0	0	0	0
242	1	0.566348081616	6.75390776781	0.0	0	0	0
243	1	1.13269616323	5.79555931088	0.0	0	0	0
244	1	1.69904424485	6.75390776781	0.0	0	0	0
245	1	2.26539232646	5.79555931088	0.0	0	0	0
246	1	2.83174040808	6.75390776781	0.0	0	0	0
247	1	3.39808848969	5.79555931088	0.0	0	0	0
248	1	3.96443657131	6.75390776781	0.0	0	0	0
249	1	4.53078465293	5.79555931088	0.0	0	0	0
250	1	5.09713273454	6.75390776781	0.0	0	0	0
251	1	5.66348081616	5.79555931088	0.0	0	0	0
252	1	6.22982889777	6.75390776781	0.0	0	0	0
253	1	6.79617697939	5.79555931088	0.0	0	0	0
254	1	7.362525061	6.75390776781	0.0	0	0	0
255	1	7.92887314262	5.79555931088	0.0	0	0	0
256	1	8.49522122424	6.75390776781	0.0	0	0	0
257	1	9.06156930585	5.79555931088	0.0	0	0	0
258	1	9.62791738747	6.75390776781	0.0	0	0	0
259	1	10.1942654691	5.79555931088	0.0	0	0	0
260	1	10.7606135507	6.75390776781	0.0	0	0	0
261	1	11.3269616323	5.79555931088	0.0	0	0	0
262	1	11.8933097139	6.75390776781	0.0	0	0	0
263	1	12.4596577955	5.79555931088	0.0	0	0	0
264	1	13.0260058772	6.75390776781	0.0	0	0	0
265	1	13.5923539588	5.79555931088	0.0	0	0	0
266	1	14.1587020404	6.75390776781	0.0	0	0	0
267	1	14.725050122	5.79555931088	0.0	0	0	0
268	1	15.2913982036	6.75390776781	0.0	0	0	0
269	1	15.8577462852	5.79555931088	0.0	0	0	0
270	1	16.4240943669	6.75390776781	0.0	0	0	0
271	1	16.9904424485	5.79555931088	0.0	0	0	0
272	1	17.5567905301	6.75390776781	0.0	0	0	0
273	1	18.1231386117	5.79555931088	0.0	0	0	0
274	1	18.6894866933	6.75390776781	0.0	0	0	0
275	1	19.2558347749	5.79555931088	0.0	0	0	0
276	1	19.8221828565	6.75390776781	0.0	0	0	0
277	1	20.3885309382	5.79555931088	0.0	0	0	0
278	1	20.9548790198	6.75390776781	0.0	0	0	0
279	1	21.5212271014	5.79555931088	0.0	0	0	0
280	1	22.087575183	6.75390776781	0.0	0	0	0
281	1	22.6539232646	5.79555931088	0.0	0	0	0
282	1	23.2202713462	6.75390776781	0.0	0	0	0
283	1	23.7866194279	5.79555931088	0.0	0	0	0
284	1	24.3529675095	6.75390776781	0.0	0	0	0
285	1	24.9193155911	5.79555931088	0.0	0	0	0
286	1	25.4856636727	6.75390776781	0.0	0	0	0
287	1	26.0520117543	5.79555931088	0.0	0	0	0
288	1	26.6183598359	6.75390776781	0.0	0	0	0
289	1	27.1847079176	5.79555931088	0.0	0	0	0
290	1	27.7510559992	6.75390776781	0.0	0	0	0
291	1	28.3174040808	5.79555931088	0.0	0	0	0
292	1	28.8837521624	6.75390776781	0.0	0	0	0
293	1	29.450100244	5.79555931088	0.0	0	0	0
294	1	30.0164483256	6.75390776781	0.0	0	0	0
295	1	30.5827964072	5.79555931088	0.0	0	0	0
296	1	31.1491444889	6.75390776781	0.0	0	0	0
297	1	31.7154925705	5.79555931088	0.0	0	0	0
298	1	32.2818406521	6.75390776781	0.0	0	0	0
299	1	32.8481887337	5.79555931088	0.0	0	0	0
300	1	33.4145368153	6.75390776781	0.0	0	0	0
301	1	33.9808848969	5.79555931088	0.0	0	0	0
302	1	34.5472329786	6.75390776781	0.0	0	0	0
303	1	35.1135810602	5.79555931088	0.0	0	0	0
304	1	35.6799291418	6.75390776781	0.0	0	0	0
305	1	36.2462772234	5.79555931088	0.0	0	0	0
306	1	36.812625305	6.75390776781	0.0	0	0	0
307	1	37.3789733866	5.79555931088	0.0	0	0	0
308	1	37.9453214683	6.75390776781	0.0	0	0	0
309	1	38.5116695499	5.79555931088	0.0	0	0	0
310	1	39.0780176315	6.75390776781	0.0	0	0	0
311	1	39.6443657131	5.79555931088	0.0	0	0	0
312	1	40.2107137947	6.75390776781	0.0	0	0	0
313	1	40.7770618763	5.79555931088	0.0	0	0	0
314	1	41.3434099579	6.75390776781	0.0	0	0	0
315	1	41.9097580396	5.79555931088	0.0	0	0	0
316	1	42.4761061212	6.75390776781	0.0	0	0	0
317	1	43.0424542028	5.79555931088	0.0	0	0	0
318	1	43.6088022844	6.75390776781	0.0	0	0	0
319	1	44.175150366	5.79555931088	0.0	0	0	0
320	1	44.7414984476	6.75390776781	0.0	0	0	0
321	1	0.0	7.71225622474	0.0	0	0	0
322	1	0.566348081616	8.67060468166	0.0	0	0	0
323	1	1.13269616323	7.71225622474	0.0	0	0	0
324	1	1.69904424485	8.67060468166	0.0	0	0	0
325	1	2.26539232646	7.71225622474	0.0	0	0	0
326	1	2.83174040808	8.67060468166	0.0	0	0	0
327	1	3.39808848969	7.71225622474	0.0	0	0	0
328	1	3.96443657131	8.67060468166	0.0	0	0	0
329	1	4.53078465293	7.71225622474	0.0	0	0	0
330	1	5.09713273454	8.67060468166	0.0	0	0	0
331	1	5.66348081616	7.71225622474	0.0	0	0	0
332	1	6.22982889777	8.67060468166	0.0	0	0	0
333	1	6.79617697939	7.71225622474	0.0	0	0	0
334	1	7.362525061	8.67060468166	0.0	0	0	0
335	1	7.92887314262	7.71225622474	0.0	0	0	0
336	1	8.49522122424	8.67060468166	0.0	0	0	0
337	1	9.06156930585	7.71225622474	0.0	0	0	0
338	1	9.62791738747	8.67060468166	0.0	0	0	0
339	1	10.1942654691	7.71225622474	0.0	0	0	0
340	1	10.7606135507	8.67060468166	0.0	0	0	0
341	1	11.3269616323	7.71225622474	0.0	0	0	0
342	1	11.8933097139	8.67060468166	0.0	0	0	0
343	1	12.4596577955	7.71225622474	0.0	0	0	0
344	1	13.0260058772	8.67060468166	0.0	0	0	0
345	1	13.5923539588	7.71225622474	0.0	0	0	0
346	1	14.1587020404	8.67060468166	0.0	0	0	0
347	1	14.725050122	7.71225622474	0.0	0	0	0
348	1	15.2913982036	8.67060468166	0.0	0	0	0
349	1	15.8577462852	7.71225622474	0.0	0	0	0
350	1	16.4240943669	8.67060468166	0.0	0	0	0
351	1	16.9904424485	7.71225622474	0.0	0	0	0
352	1	17.5567905301	8.67060468166	0.0	0	0	0
353	1	18.1231386117	7.71225622474	0.0	0	0	0
354	1	18.6894866933	8.67060468166	0.0	0	0	0
355	1	19.2558347749	7.71225622474	0.0	0	0	0
356	1	19.8221828565	8.67060468166	0.0	0	0	0
357	1	20.3885309382	7.71225622474	0.0	0	0	0
358	1	20.9548790198	8.67060468166	0.0	0	0	0
359	1	21.5212271014	7.71225622474	0.0	0	0	0
360	1	22.087575183	8.67060468166	0.0	0	0	0
361	1	22.6539232646	7.71225622474	0.0	0	0	0
362	1	23.2202713462	8.67060468166	0.0	0	0	0
363	1	23.7866194279	7.71225622474	0.0	0	0	0
364	1	24.3529675095	8.67060468166	0.0	0	0	0
365	1	24.9193155911	7.71225622474	0.0	0	0	0
366	1	25.4856636727	8.67060468166	0.0	0	0	0
367	1	26.0520117543	7.71225622474	0.0	0	0	0
368	1	26.6183598359	8.67060468166	0.0	0	0	0
369	1	27.1847079176	7.71225622474	0.0	0	0	0
370	1	27.7510559992	8.67060468166	0.0	0	0	0
371	1	28.3174040808	7.71225622474	0.0	0	0	0
372	1	28.8837521624	8.67060468166	0.0	0	0	0
373	1	29.450100244	7.71225622474	0.0	0	0	0
374	1	30.0164483256	8.67060468166	0.0	0	0	0
375	1	30.5827964072	7.71225622474	0.0	0	0	0
376	1	31.1491444889	8.67060468166	0.0	0	0	0
377	1	31.7154925705	7.71225622474	0.0	0	0	0
378	1	32.2818406521	8.67060468166	0.0	0	0	0
379	1	32.8481887337	7.71225622474	0.0	0	0	0
380	1	33.4145368153	8.67060468166	0.0	0	0	0
381	1	33.9808848969	7.71225622474	0.0	0	0	0
382	1	34.5472329786	8.67060468166	0.0	0	0	0
383	1	35.1135810602	7.71225622474	0.0	0	0	0
384	1	35.6799291418	8.67060468166	0.0	0	0	0
385	1	36.2462772234	7.71225622474	0.0	0	0	0
386	1	36.812625305	8.67060468166	0.0	0	0	0
387	1	37.3789733866	7.71225622474	0.0	0	0	0
388	1	37.9453214683	8.67060468166	0.0	0	0	0
389	1	38.5116695499	7.71225622474	0.0	0	0	0
390	1	39.0780176315	8.67060468166	0.0	0	0	0
391	1	39.6443657131	7.71225622474	0.0	0	0	0
392	1	40.2107137947	8.67060468166	0.0	0	0	0
393	1	40.7770618763	7.71225622474	0.0	0	0	0
394	1	41.3434099579	8.67060468166	0.0	0	0	0
395	1	41.9097580396	7.71225622474	0.0	0	0	0
396	1	42.4761061212	8.67060468166	0.0	0	0	0
397	1	43.0424542028	7.71225622474	0.0	0	0	0
398	1	43.6088022844	8.67060468166	0.0	0	0	0
399	1	44.175150366	7.71225622474	0.0	0	0	0
400	1	44.7414984476	8.67060468166	0.0	0	0	0
401	1	0.0	9.62895313859	0.0	0	0	0
402	1	0.566348081616	10.5873015955	0.0	0	0	0
403	1	1.13269616323	9.62895313859	0.0	0	0	0
404	1	1.69904424485	10.5873015955	0.0	0	0	0
405	1	2.26539232646	9.62895313859	0.0	0	0	0
406	1	2.83174040808	10.5873015955	0.0	0	0	0
407	1	3.39808848969	9.62895313859	0.0	0	0	0
408	1	3.96443657131	10.5873015955	0.0	0	0	0
409	1	4.53078465293	9.62895313859	0.0	0	0	0
410	1	5.09713273454	10.5873015955	0.0	0	0	0
411	1	5.66348081616	9.62895313859	0.0	0	0	0
412	1	6.22982889777	10.5873015955	0.0	0	0	0
413	1	6.79617697939	9.62895313859	0.0	0	0	0
414	1	7.362525061	10.5873015955	0.0	0	0	0
415	1	7.92887314262	9.62895313859	0.0	0	0	0
416	1	8.49522122424	10.5873015955	0.0	0	0	0
417	1	9.06156930585	9.62895313859	0.0	0	0	0
418	1	9.62791738747	10.5873015955	0.0	0	0	0
419	1	10.1942654691	9.62895313859	0.0	0	0	0
420	1	10.7606135507	10.5873015955	0.0	0	0	0
421	1	11.3269616323	9.62895313859	0.0	0	0	0
422	1	11.8933097139	10.5873015955	0.0	0	0	0
423	1	12.4596577955	9.62895313859	0.0	0	0	0
424	1	13.0260058772	10.5873015955	0.0	0	0	0
425	1	13.5923539588	9.62895313859	0.0	0	0	0
426	1	14.1587020404	10.5873015955	0.0	0	0	0
427	1	14.725050122	9.62895313859	0.0	0	0	0
428	1	15.2913982036	10.5873015955	0.0	0	0	0
429	1	15.8577462852	9.62895313859	0.0	0	0	0
430	1	16.4240943669	10.5873015955	0.0	0	0	0
431	1	16.9904424485	9.62895313859	0.0	0	0	0
432	1	17.5567905301	10.5873015955	0.0	0	0	0
433	1	18.1231386117	9.62895313859	0.0	0	0	0
434	1	18.6894866933	10.5873015955	0.0	0	0	0
435	1	19.2558347749	9.62895313859	0.0	0	0	0
436	1	19.8221828565	10.5873015955	0.0	0	0	0
437	1	20.3885309382	9.62895313859	0.0	0	0	0
438	1	20.9548790198	10.5873015955	0.0	0	0	0
439	1	21.5212271014	9.62895313859	0.0	0	0	0
440	1	22.087575183	10.5873015955	0.0	0	0	0
441	1	22.6539232646	9.62895313859	0.0	0	0	0
442	1	23.2202713462	10.5873015955	0.0	0	0	0
443	1	23.7866194279	9.62895313859	0.0	0	0	0
444	1	24.3529675095	10.5873015955	0.0	0	0	0
445	1	24.9193155911	9.62895313859	0.0	0	0	0
446	1	25.4856636727	10.5873015955	0.0	0	0	0
447	1	26.0520117543	9.62895313859	0.0	0	0	0
448	1	26.6183598359	10.5873015955	0.0	0	0	0
449	1	27.1847079176	9.62895313859	0.0	0	0	0
450	1	27.7510559992	10.5873015955	0.0	0	0	0
451	1	28.3174040808	9.62895313859	0.0	0	0	0
452	1	28.8837521624	10.5873015955	0.0	0	0	0
453	1	29.450100244	9.62895313859	0.0	0	0	0
454	1	30.0164483256	10.5873015955	0.0	0	0	0
455	1	30.5827964072	9.62895313859	0.0	0	0	0
456	1	31.1491444889	10.5873015955	0.0	0	0	0
457	1	31.7154925705	9.62895313859	0.0	0	0	0
458	1	32.2818406521	10.5873015955	0.0	0	0	0
459	1	32.8481887337	9.62895313859	0.0	0	0	0
460	1	33.4145368153	10.5873015955	0.0	0	0	0
461	1	33.9808848969	9.62895313859	0.0	0	0	0
462	1	34.5472329786	10.5873015955	0.0	0	0	0
463	1	35.1135810602	9.62895313859	0.0	0	0	0
464	1	35.6799291418	10.5873015955	0.0	0	0	0
465	1	36.2462772234	9.62895313859	0.0	0	0	0
466	1	36.812625305	10.5873015955	0.0	0	0	0
467	1	37.3789733866	9.62895313859	0.0	0	0	0
468	1	37.9453214683	10.5873015955	0.0	0	0	0
469	1	38.5116695499	9.62895313859	0.0	0	0	0
470	1	39.0780176315	10.5873015955	0.0	0	0	0
471	1	39.6443657131	9.62895313859	0.0	0	0	0
472	1	40.2107137947	10.5873015955	0.0	0	0	0
473	1	40.7770618763	9.62895313859	0.0	0	0	0
474	1	41.3434099579	10.5873015955	0.0	0	0	0
475	1	41.9097580396	9.62895313859	0.0	0	0	0
476	1	42.4761061212	10.5873015955	0.0	0	0	0
477	1	43.0424542028	9.62895313859	0.0	0	0	0
478	1	43.6088022844	10.5873015955	0.0	0	0	0
479	1	44.175150366	9.62895313859	0.0	0	0	0
480	1	44.7414984476	10.5873015955	0.0	0	0	0
481	1	0.0	11.5456500524	0.0	0	0	0
482	1	0.566348081616	12.5039985094	0.0	0	0	0
483	1	1.13269616323	11.5456500524	0.0	0	0	0
484	1	1.69904424485	12.5039985094	0.0	0	0	0
485	1	2.26539232646	11.5456500524	0.0	0	0	0
486	1	2.83174040808	12.5039985094	0.0	0	0	0
487	1	3.39808848969	11.5456500524	0.0	0	0	0
488	1	3.96443657131	12.5039985094	0.0	0	0	0
489	1	4.53078465293	11.5456500524	0.0	0	0	0
490	1	5.09713273454	12.5039985094	0.0	0	0	0
491	1	5.66348081616	11.5456500524	0.0	0	0	0
492	1	6.22982889777	12.5039985094	0.0	0	0	0
493	1	6.79617697939	11.5456500524	0.0	0	0	0
494	1	7.362525061	12.5039985094	0.0	0	0	0
495	1	7.92887314262	11.5456500524	0.0	0	0	0
496	1	8.49522122424	12.5039985094	0.0	0	0	0
497	1	9.06156930585	11.5456500524	0.0	0	0	0
498	1	9.62791738747	12.5039985094	0.0	0	0	0
499	1	10.1942654691	11.5456500524	0.0	0	0	0
500	1	10.7606135507	12.5039985094	0.0	0	0	0
501	1	11.3269616323	11.5456500524	0.0	0	0	0
502	1	11.8933097139	12.5039985094	0.0	0	0	0
503	1	12.4596577955	11.5456500524	0.0	0	0	0
504	1	13.0260058772	12.5039985094	0.0	0	0	0
505	1	13.5923539588	11.5456500524	0.0	0	0	0
506	1	14.1587020404	12.5039985094	0.0	0	0	0
507	1	14.725050122	11.5456500524	0.0	0	0	0
508	1	15.2913982036	12.5039985094	0.0	0	0	0
509	1	15.8577462852	11.5456500524	0.0	0	0	0
510	1	16.4240943669	12.5039985094	0.0	0	0	0
511	1	16.9904424485	11.5456500524	0.0	0	0	0
512	1	17.5567905301	12.5039985094	0.0	0	0	0
513	1	18.1231386117	11.5456500524	0.0	0	0	0
514	1	18.6894866933	12.5039985094	0.0	0	0	0
515	1	19.2558347749	11.5456500524	0.0	0	0	0
516	1	19.8221828565	12.5039985094	0.0	0	0	0
517	1	20.3885309382	11.5456500524	0.0	0	0	0
518	1	20.9548790198	12.5039985094	0.0	0	0	0
519	1	21.5212271014	11.5456500524	0.0	0	0	0
520	1	22.087575183	12.5039985094	0.0	0	0	0
521	1	22.6539232646	11.5456500524	0.0	0	0	0
522	1	23.2202713462	12.5039985094	0.0	0	0	0
523	1	23.7866194279	11.5456500524	0.0	0	0	0
524	1	24.3529675095	12.5039985094	0.0	0	0	0
525	1	24.9193155911	11.5456500524	0.0	0	0	0
526	1	25.4856636727	12.5039985094	0.0	0	0	0
527	1	26.0520117543	11.5456500524	0.0	0	0	0
528	1	26.6183598359	12.5039985094	0.0	0	0	0
529	1	27.1847079176	11.5456500524	0.0	0	0	0
530	1	27.7510559992	12.5039985094	0.0	0	0	0
531	1	28.3174040808	11.5456500524	0.0	0	0	0
532	1	28.8837521624	12.5039985094	0.0	0	0	0
533	1	29.450100244	11.5456500524	0.0	0	0	0
534	1	30.0164483256	12.5039985094	0.0	0	0	0
535	1	30.5827964072	11.5456500524	0.0	0	0	0
536	1	31.1491444889	12.5039985094	0.0	0	0	0
537	1	31.7154925705	11.5456500524	0.0	0	0	0
538	1	32.2818406521	12.5039985094	0.0	0	0	0
539	1	32.8481887337	11.5456500524	0.0	0	0	0
540	1	33.4145368153	12.5039985094	0.0	0	0	0
541	1	33.9808848969	11.5456500524	0.0	0	0	0
542	1	34.5472329786	12.5039985094	0.0	0	0	0
543	1	35.1135810602	11.5456500524	0.0	0	0	0
544	1	35.6799291418	12.5039985094	0.0	0	0	0
545	1	36.2462772234	11.5456500524	0.0	0	0	0
546	1	36.812625305	12.5039985094	0.0	0	0	0
547	1	37.3789733866	11.5456500524	0.0	0	0	0
548	1	37.9453214683	12.5039985094	0.0	0	0	0
549	1	38.5116695499	11.5456500524	0.0	0	0	0
550	1	39.0780176315	12.5039985094	0.0	0	0	0
551	1	39.6443657131	11.5456500524	0.0	0	0	0
552	1	40.2107137947	12.5039985094	0.0	0	0	0
553	1	40.7770618763	11.5456500524	0.0	0	0	0
554	1	41.3434099579	12.5039985094	0.0	0	0	0
555	1	41.9097580396	11.5456500524	0.0	0	0	0
556	1	42.4761061212	12.5039985094	0.0	0	0	0
557	1	43.0424542028	11.5456500524	0.0	0	0	0
558	1	43.6088022844	12.5039985094	0.0	0	0	0
559	1	44.175150366	11.5456500524	0.0	0	0	0
560	1	44.7414984476	12.5039985094	0.0	0	0	0
561	1	0.0	13.4623469663	0.0	0	0	0
562	1	0.566348081616	14.4206954232	0.0	0	0	0
563	1	1.13269616323	13.4623469663	0.0	0	0	0
564	1	1.69904424485	14.4206954232	0.0	0	0	0
565	1	2.26539232646	13.4623469663	0.0	0	0	0
566	1	2.83174040808	14.4206954232	0.0	0	0	0
567	1	3.39808848969	13.4623469663	0.0	0	0	0
568	1	3.96443657131	14.4206954232	0.0	0	0	0
569	1	4.53078465293	13.4623469663	0.0	0	0	0
570	1	5.09713273454	14.4206954232	0.0	0	0	0
571	1	5.66348081616	13.4623469663	0.0	0	0	0
572	1	6.22982889777	14.4206954232	0.0	0	0	0
573	1	6.79617697939	13.4623469663	0.0	0	0	0
574	1	7.362525061	14.4206954232	0.0	0	0	0
575	1	7.92887314262	13.4623469663	0.0	0	0	0
576	1	8.49522122424	14.4206954232	0.0	0	0	0
577	1	9.06156930585	13.4623469663	0.0	0	0	0
578	1	9.62791738747	14.4206954232	0.0	0	0	0
579	1	10.1942654691	13.4623469663	0.0	0	0	0
580	1	10.7606135507	14.4206954232	0.0	0	0	0
581	1	11.3269616323	13.4623469663	0.0	0	0	0
582	1	11.8933097139	14.4206954232	0.0	0	0	0
583	1	12.4596577955	13.4623469663	0.0	0	0	0
584	1	13.0260058772	14.4206954232	0.0	0	0	0
585	1	13.5923539588	13.4623469663	0.0	0	0	0
586	1	14.1587020404	14.4206954232	0.0	0	0	0
587	1	14.725050122	13.4623469663	0.0	0	0	0
588	1	15.2913982036	14.4206954232	0.0	0	0	0
589	1	15.8577462852	13.4623469663	0.0	0	0	0
590	1	16.4240943669	14.4206954232	0.0	0	0	0
591	1	16.9904424485	13.4623469663	0.0	0	0	0
592	1	17.5567905301	14.4206954232	0.0	0	0	0
593	1	18.1231386117	13.4623469663	0.0	0	0	0
594	1	18.6894866933	14.4206954232	0.0	0	0	0
595	1	19.2558347749	13.4623469663	0.0	0	0	0
596	1	19.8221828565	14.4206954232	0.0	0	0	0
597	1	20.3885309382	13.4623469663	0.0	0	0	0
598	1	20.9548790198	14.4206954232	0.0	0	0	0
599	1	21.5212271014	13.4623469663	0.0	0	0	0
600	1	22.087575183	14.4206954232	0.0	0	0	0
601	1	22.6539232646	13.4623469663	0.0	0	0	0
602	1	23.2202713462	14.4206954232	0.0	0	0	0
603	1	23.7866194279	13.4623469663	0.0	0	0	0
604	1	24.3529675095	14.4206954232	0.0	0	0	0
605	1	24.9193155911	13.4623469663	0.0	0	0	0
606	1	25.4856636727	14.4206954232	0.0	0	0	0
607	1	26.0520117543	13.4623469663	0.0	0	0	0
608	1	26.6183598359	14.4206954232	0.0	0	0	0
609	1	27.1847079176	13.4623469663	0.0	0	0	0
610	1	27.7510559992	14.4206954232	0.0	0	0	0
611	1	28.3174040808	13.4623469663	0.0	0	0	0
612	1	28.8837521624	14.4206954232	0.0	0	0	0
613	1	29.450100244	13.4623469663	0.0	0	0	0
614	1	30.0164483256	14.4206954232	0.0	0	0	0
615	1	30.5827964072	13.4623469663	0.0	0	0	0
616	1	31.1491444889	14.4206954232	0.0	0	0	0
617	1	31.7154925705	13.4623469663	0.0	0	0	0
618	1	32.2818406521	14.4206954232	0.0	0	0	0
619	1	32.8481887337	13.4623469663	0.0	0	0	0
620	1	33.4145368153	14.4206954232	0.0	0	0	0
621	1	33.9808848969	13.4623469663	0.0	0	0	0
622	1	34.5472329786	14.4206954232	0.0	0	0	0
623	1	35.1135810602	13.4623469663	0.0	0	0	0
624	1	35.6799291418	14.4206954232	0.0	0	0	0
625	1	36.2462772234	13.4623469663	0.0	0	0	0
626	1	36.812625305	14.4206954232	0.0	0	0	0
627	1	37.3789733866	13.4623469663	0.0	0	0	0
628	1	37.9453214683	14.4206954232	0.0	0	0	0
629	1	38.5116695499	13.4623469663	0.0	0	0	0
630	1	39.0780176315	14.4206954232	0.0	0	0	0
631	1	39.6443657131	13.4623469663	0.0	0	0	0
632	1	40.2107137947	14.4206954232	0.0	0	0	0
633	1	40.7770618763	13.4623469663	0.0	0	0	0
634	1	41.3434099579	14.4206954232	0.0	0	0	0
635	1	41.9097580396	13.4623469663	0.0	0	0	0
636	1	42.4761061212	14.4206954232	0.0	0	0	0
637	1	43.0424542028	13.4623469663	0.0	0	0	0
638	1	43.6088022844	14.4206954232	0.0	0	0	0
639	1	44.175150366	13.4623469663	0.0	0	0	0
640	1	44.7414984476	14.4206954232	0.0	0	0	0
641	1	0.0	15.3790438802	0.0	0	0	0
642	1	0.566348081616	16.3373923454	0.0	0	0	0
643	1	1.13269616323	15.3790438802	0.0	0	0	0
644	1	1.69904424485	16.3373923454	0.0	0	0	0
645	1	2.26539232646	15.3790438802	0.0	0	0	0
646	1	2.83174040808	16.3373923454	0.0	0	0	0
647	1	3.39808848969	15.3790438802	0.0	0	0	0
648	1	3.96443657131	16.3373923454	0.0	0	0	0
649	1	4.53078465293	15.3790438802	0.0	0	0	0
650	1	5.09713273454	16.3373923454	0.0	0	0	0
651	1	5.66348081616	15.3790438802	0.0	0	0	0
652	1	6.22982889777	16.3373923454	0.0	0	0	0
653	1	6.79617697939	15.3790438802	0.0	0	0	0
654	1	7.362525061	16.3373923454	0.0	0	0	0
655	1	7.92887314262	15.3790438802	0.0	0	0	0
656	1	8.49522122424	16.3373923454	0.0	0	0	0
657	1	9.06156930585	15.3790438802	0.0	0	0	0
658	1	9.62791738747	16.3373923454	0.0	0	0	0
659	1	10.1942654691	15.3790438802	0.0	0	0	0
660	1	10.7606135507	16.3373923454	0.0	0	0	0
661	1	11.3269616323	15.3790438802	0.0	0	0	0
662	1	11.8933097139	16.3373923454	0.0	0	0	0
663	1	12.4596577955	15.3790438802	0.0	0	0	0
664	1	13.0260058772	16.3373923454	0.0	0	0	0
665	1	13.5923539588	15.3790438802	0.0	0	0	0
666	1	14.1587020404	16.3373923454	0.0	0	0	0
667	1	14.725050122	15.3790438802	0.0	0	0	0
668	1	15.2913982036	16.3373923454	0.0	0	0	0
669	1	15.8577462852	15.3790438802	0.0	0	0	0
670	1	16.4240943669	16.3373923454	0.0	0	0	0
671	1	16.9904424485	15.3790438802	0.0	0	0	0
672	1	17.5567905301	16.3373923454	0.0	0	0	0
673	1	18.1231386117	15.3790438802	0.0	0	0	0