LAMMPS data file from restart file: timestep = 13, procs = 1

840 atoms

2 atom types

0.0000000000000000e+00 4.5307846529256608e+01 xlo xhi
-1.9220507115284495e-03 1.9218505391387513e+01 ylo yhi
-2.8317404080785380e-01 2.8317404080785380e-01 zlo zhi

Masses

1 1
2 1

Pair Coeffs

1 1 1
2 1 1

Atoms

1	2	0.0	0.0	0.0	0	0	0
2	2	0.566348081616	0.980943652128	0.0	0	0	0
3	2	1.13269616323	0.0	0.0	0	0	0
4	2	1.69904424485	0.980943652128	0.0	0	0	0
5	2	2.26539232646	0.0	0.0	0	0	0
6	2	2.83174040808	0.980943652128	0.0	0	0	0
7	2	3.39808848969	0.0	0.0	0	0	0
8	2	3.96443657131	0.980943652128	0.0	0	0	0
9	2	4.53078465293	0.0	0.0	0	0	0
10	2	5.09713273454	0.980943652128	0.0	0	0	0
11	2	5.66348081616	0.0	0.0	0	0	0
12	2	6.22982889777	0.980943652128	0.0	0	0	0
13	2	6.79617697939	0.0	0.0	0	0	0
14	2	7.362525061	0.980943652128	0.0	0	0	0
15	2	7.92887314262	0.0	0.0	0	0	0
16	2	8.49522122424	0.980943652128	0.0	0	0	0
17	2	9.06156930585	0.0	0.0	0	0	0
18	2	9.62791738747	0.980943652128	0.0	0	0	0
19	2	10.1942654691	0.0	0.0	0	0	0
20	2	10.7606135507	0.980943652128	0.0	0	0	0
21	2	11.3269616323	0.0	0.0	0	0	0
22	2	11.8933097139	0.980943652128	0.0	0	0	0
23	2	12.4596577955	0.0	0.0	0	0	0
24	2	13.0260058772	0.980943652128	0.0	0	0	0
25	2	13.5923539588	0.0	0.0	0	0	0
26	2	14.1587020404	0.980943652128	0.0	0	0	0
27	2	14.725050122	0.0	0.0	0	0	0
28	2	15.2913982036	0.980943652128	0.0	0	0	0
29	2	15.8577462852	0.0	0.0	0	0	0
30	2	16.4240943669	0.980943652128	0.0	0	0	0
31	2	16.9904424485	0.0	0.0	0	0	0
32	2	17.5567905301	0.980943652128	0.0	0	0	0
33	2	18.1231386117	0.0	0.0	0	0	0
34	2	18.6894866933	0.980943652128	0.0	0	0	0
35	2	19.2558347749	0.0	0.0	0	0	0
36	2	19.8221828565	0.980943652128	0.0	0	0	0
37	2	20.3885309382	0.0	0.0	0	0	0
38	2	20.9548790198	0.980943652128	0.0	0	0	0
39	2	21.5212271014	0.0	0.0	0	0	0
40	2	22.087575183	0.980943652128	0.0	0	0	0
41	2	22.6539232646	0.0	0.0	0	0	0
42	2	23.2202713462	0.980943652128	0.0	0	0	0
43	2	23.7866194279	0.0	0.0	0	0	0
44	2	24.3529675095	0.980943652128	0.0	0	0	0
45	2	24.9193155911	0.0	0.0	0	0	0
46	2	25.4856636727	0.980943652128	0.0	0	0	0
47	2	26.0520117543	0.0	0.0	0	0	0
48	2	26.6183598359	0.980943652128	0.0	0	0	0
49	2	27.1847079176	0.0	0.0	0	0	0
50	2	27.7510559992	0.980943652128	0.0	0	0	0
51	2	28.3174040808	0.0	0.0	0	0	0
52	2	28.8837521624	0.980943652128	0.0	0	0	0
53	2	29.450100244	0.0	0.0	0	0	0
54	2	30.0164483256	0.980943652128	0.0	0	0	0
55	2	30.5827964072	0.0	0.0	0	0	0
56	2	31.1491444889	0.980943652128	0.0	0	0	0
57	2	31.7154925705	0.0	0.0	0	0	0
58	2	32.2818406521	0.980943652128	0.0	0	0	0
59	2	32.8481887337	0.0	0.0	0	0	0
60	2	33.4145368153	0.980943652128	0.0	0	0	0
61	2	33.9808848969	0.0	0.0	0	0	0
62	2	34.5472329786	0.980943652128	0.0	0	0	0
63	2	35.1135810602	0.0	0.0	0	0	0
64	2	35.6799291418	0.980943652128	0.0	0	0	0
65	2	36.2462772234	0.0	0.0	0	0	0
66	2	36.812625305	0.980943652128	0.0	0	0	0
67	2	37.3789733866	0.0	0.0	0	0	0
68	2	37.9453214683	0.980943652128	0.0	0	0	0
69	2	38.5116695499	0.0	0.0	0	0	0
70	2	39.0780176315	0.980943652128	0.0	0	0	0
71	2	39.6443657131	0.0	0.0	0	0	0
72	2	40.2107137947	0.980943652128	0.0	0	0	0
73	2	40.7770618763	0.0	0.0	0	0	0
74	2	41.3434099579	0.980943652128	0.0	0	0	0
75	2	41.9097580396	0.0	0.0	0	0	0
76	2	42.4761061212	0.980943652128	0.0	0	0	0
77	2	43.0424542028	0.0	0.0	0	0	0
78	2	43.6088022844	0.980943652128	0.0	0	0	0
79	2	44.175150366	0.0	0.0	0	0	0
80	2	44.7414984476	0.980943652128	0.0	0	0	0
81	2	0.0	1.96188730426	0.0	0	0	0
82	1	0.566349302322	2.92051097802	0.0	0	0	0
83	2	1.13269616323	1.96188730426	0.0	0	0	0
84	1	1.69904531579	2.92051277772	0.0	0	0	0
85	2	2.26539232646	1.96188730426	0.0	0	0	0
86	1	2.83174048834	2.92051330589	0.0	0	0	0
87	2	3.39808848969	1.96188730426	0.0	0	0	0
88	1	3.96443898421	2.9205118993	0.0	0	0	0
89	2	4.53078465293	1.96188730426	0.0	0	0	0
90	1	5.09713568786	2.92051258284	0.0	0	0	0
91	2	5.66348081616	1.96188730426	0.0	0	0	0
92	1	6.22983174363	2.92051150308	0.0	0	0	0
93	2	6.79617697939	1.96188730426	0.0	0	0	0
94	1	7.36252790125	2.92051324261	0.0	0	0	0
95	2	7.92887314262	1.96188730426	0.0	0	0	0
96	1	8.49522234553	2.92051198282	0.0	0	0	0
97	2	9.06156930585	1.96188730426	0.0	0	0	0
98	1	9.62791801751	2.92051360916	0.0	0	0	0
99	2	10.1942654691	1.96188730426	0.0	0	0	0
100	1	10.7606158559	2.92051235397	0.0	0	0	0
101	2	11.3269616323	1.96188730426	0.0	0	0	0
102	1	11.8933127846	2.92051252777	0.0	0	0	0
103	2	12.4596577955	1.96188730426	0.0	0	0	0
104	1	13.0260063102	2.92051252659	0.0	0	0	0
105	2	13.5923539588	1.96188730426	0.0	0	0	0
106	1	14.1587053247	2.92051345999	0.0	0	0	0
107	2	14.725050122	1.96188730426	0.0	0	0	0
108	1	15.2913999435	2.9205124286	0.0	0	0	0
109	2	15.8577462852	1.96188730426	0.0	0	0	0
110	1	16.4240968291	2.92051236793	0.0	0	0	0
111	2	16.9904424485	1.96188730426	0.0	0	0	0
112	1	17.556791221	2.92051061947	0.0	0	0	0
113	2	18.1231386117	1.96188730426	0.0	0	0	0
114	1	18.689490077	2.92051296319	0.0	0	0	0
115	2	19.2558347749	1.96188730426	0.0	0	0	0
116	1	19.8221835504	2.92051288673	0.0	0	0	0
117	2	20.3885309382	1.96188730426	0.0	0	0	0
118	1	20.954882206	2.92051156516	0.0	0	0	0
119	2	21.5212271014	1.96188730426	0.0	0	0	0
120	1	22.087576495	2.92051368657	0.0	0	0	0
121	2	22.6539232646	1.96188730426	0.0	0	0	0
122	1	23.2202727086	2.92051049428	0.0	0	0	0
123	2	23.7866194279	1.96188730426	0.0	0	0	0
124	1	24.3529682927	2.92051273877	0.0	0	0	0
125	2	24.9193155911	1.96188730426	0.0	0	0	0
126	1	25.4856642599	2.92051262785	0.0	0	0	0
127	2	26.0520117543	1.96188730426	0.0	0	0	0
128	1	26.6183631681	2.92051116653	0.0	0	0	0
129	2	27.1847079176	1.96188730426	0.0	0	0	0
130	1	27.7510592832	2.92051064498	0.0	0	0	0
131	2	28.3174040808	1.96188730426	0.0	0	0	0
132	1	28.883752966	2.9205126611	0.0	0	0	0
133	2	29.450100244	1.96188730426	0.0	0	0	0
134	1	30.0164514491	2.92051276481	0.0	0	0	0
135	2	30.5827964072	1.96188730426	0.0	0	0	0
136	1	31.14914625	2.92051279133	0.0	0	0	0
137	2	31.7154925705	1.96188730426	0.0	0	0	0
138	1	32.2818412711	2.92051144983	0.0	0	0	0
139	2	32.8481887337	1.96188730426	0.0	0	0	0
140	1	33.4145391271	2.92051373019	0.0	0	0	0
141	2	33.9808848969	1.96188730426	0.0	0	0	0
142	1	34.547234626	2.92051136511	0.0	0	0	0
143	2	35.1135810602	1.96188730426	0.0	0	0	0
144	1	35.6799319145	2.92051195325	0.0	0	0	0
145	2	36.2462772234	1.96188730426	0.0	0	0	0
146	1	36.8126285895	2.9205106341	0.0	0	0	0
147	2	37.3789733866	1.96188730426	0.0	0	0	0
148	1	37.9453220545	2.92051085394	0.0	0	0	0
149	2	38.5116695499	1.96188730426	0.0	0	0	0
150	1	39.0780203409	2.92051325237	0.0	0	0	0
151	2	39.6443657131	1.96188730426	0.0	0	0	0
152	1	40.2107162533	2.92051122087	0.0	0	0	0
153	2	40.7770618763	1.96188730426	0.0	0	0	0
154	1	41.3434131545	2.92051083479	0.0	0	0	0
155	2	41.9097580396	1.96188730426	0.0	0	0	0
156	1	42.4761078146	2.92051167352	0.0	0	0	0
157	2	43.0424542028	1.96188730426	0.0	0	0	0
158	1	43.6088032284	2.92051308701	0.0	0	0	0
159	2	44.175150366	1.96188730426	0.0	0	0	0
160	1	44.7414992582	2.92051277023	0.0	0	0	0
161	1	1.05049134574e-06	3.87886484887	0.0	0	0	0
162	1	0.566351125266	4.83721370789	0.0	0	0	0
163	1	1.13269800757	3.87886252107	0.0	0	0	0
164	1	1.6990463185	4.83721156674	0.0	0	0	0
165	1	2.26539336732	3.87886374714	0.0	0	0	0
166	1	2.83174107351	4.83721208926	0.0	0	0	0
167	1	3.39809116434	3.87886275312	0.0	0	0	0
168	1	3.96443856909	4.83721361693	0.0	0	0	0
169	1	4.53078769881	3.87886533561	0.0	0	0	0
170	1	5.09713551285	4.83721375344	0.0	0	0	0
171	1	5.66348305644	3.87886325371	0.0	0	0	0
172	1	6.22983090598	4.83721298695	0.0	0	0	0
173	1	6.7961778237	3.87886501237	0.0	0	0	0
174	1	7.36252536986	4.83721117705	0.0	0	0	0
175	1	7.92887385381	3.87886492916	0.0	0	0	0
176	1	8.49522448914	4.83721163553	0.0	0	0	0
177	1	9.06157113548	3.87886249421	0.0	0	0	0
178	1	9.6279207781	4.83721243814	0.0	0	0	0
179	1	10.194268598	3.8788653164	0.0	0	0	0
180	1	10.7606145283	4.83721213718	0.0	0	0	0
181	1	11.3269618384	3.87886421942	0.0	0	0	0
182	1	11.893310066	4.83721299997	0.0	0	0	0
183	1	12.459660145	3.87886269888	0.0	0	0	0
184	1	13.026006826	4.83721280729	0.0	0	0	0
185	1	13.5923560425	3.87886310918	0.0	0	0	0
186	1	14.1587045186	4.83721295608	0.0	0	0	0
187	1	14.7250520908	3.87886275141	0.0	0	0	0
188	1	15.2914012708	4.83721195771	0.0	0	0	0
189	1	15.8577497062	3.8788645555	0.0	0	0	0
190	1	16.4240972633	4.83721345654	0.0	0	0	0
191	1	16.9904433458	3.87886278334	0.0	0	0	0
192	1	17.5567937959	4.83721169469	0.0	0	0	0
193	1	18.123141439	3.87886572249	0.0	0	0	0
194	1	18.6894884001	4.8372130017	0.0	0	0	0
195	1	19.2558376732	3.87886267395	0.0	0	0	0
196	1	19.8221840457	4.83721281342	0.0	0	0	0
197	1	20.3885342171	3.87886351318	0.0	0	0	0
198	1	20.9548822572	4.83721260647	0.0	0	0	0
199	1	21.5212303833	3.87886320286	0.0	0	0	0
200	1	22.0875769936	4.83721088365	0.0	0	0	0
201	1	22.6539236007	3.87886457466	0.0	0	0	0
202	1	23.2202725047	4.83721229045	0.0	0	0	0
203	1	23.786619714	3.87886462592	0.0	0	0	0
204	1	24.3529708532	4.83721113297	0.0	0	0	0
205	1	24.9193185366	3.87886390804	0.0	0	0	0
206	1	25.4856637202	4.83721133229	0.0	0	0	0
207	1	26.0520125651	3.87886377896	0.0	0	0	0
208	1	26.6183606622	4.83721246422	0.0	0	0	0
209	1	27.1847087722	3.87886500015	0.0	0	0	0
210	1	27.7510585157	4.83721425331	0.0	0	0	0
211	1	28.317406867	3.87886257789	0.0	0	0	0
212	1	28.8837553733	4.83721154411	0.0	0	0	0
213	1	29.4501009088	3.87886527043	0.0	0	0	0
214	1	30.016450762	4.83721208253	0.0	0	0	0
215	1	30.5827981322	3.87886520714	0.0	0	0	0
216	1	31.1491468404	4.8372118258	0.0	0	0	0
217	1	31.7154951622	3.87886414569	0.0	0	0	0
218	1	32.28184072	4.83721142104	0.0	0	0	0
219	1	32.8481906086	3.87886568997	0.0	0	0	0
220	1	33.4145393906	4.8372131386	0.0	0	0	0
221	1	33.9808875013	3.87886541321	0.0	0	0	0
222	1	34.547235741	4.83721102847	0.0	0	0	0
223	1	35.1135837234	3.87886575249	0.0	0	0	0
224	1	35.6799319765	4.83721266168	0.0	0	0	0
225	1	36.2462792141	3.87886240522	0.0	0	0	0
226	1	36.812628014	4.83721104475	0.0	0	0	0
227	1	37.3789741334	3.87886422851	0.0	0	0	0
228	1	37.9453247409	4.83721384006	0.0	0	0	0
229	1	38.5116722558	3.87886354765	0.0	0	0	0
230	1	39.0780180179	4.83721199173	0.0	0	0	0
231	1	39.6443671456	3.87886504145	0.0	0	0	0
232	1	40.2107153181	4.83721154674	0.0	0	0	0
233	1	40.7770637754	3.87886241134	0.0	0	0	0
234	1	41.3434122693	4.83721268377	0.0	0	0	0
235	1	41.9097603606	3.87886255167	0.0	0	0	0
236	1	42.4761093124	4.83721415938	0.0	0	0	0
237	1	43.0424552716	3.87886388656	0.0	0	0	0
238	1	43.6088053126	4.8372111778	0.0	0	0	0
239	1	44.1751516572	3.87886431441	0.0	0	0	0
240	1	44.7415004649	4.83721111098	0.0	0	0	0
241	1	1.28999023893e-06	5.79556245277	0.0	0	0	0
242	1	0.5663499296	6.75391079819	0.0	0	0	0
243	1	1.13269952045	5.79556148242	0.0	0	0	0
244	1	1.69904434192	6.75390953396	0.0	0	0	0
245	1	2.26539521419	5.79556163475	0.0	0	0	0
246	1	2.83174212257	6.75390921824	0.0	0	0	0
247	1	3.39808922365	5.79556267815	0.0	0	0	0
248	1	3.96443708805	6.75391061957	0.0	0	0	0
249	1	4.53078604944	5.79556105371	0.0	0	0	0
250	1	5.09713528425	6.75390798108	0.0	0	0	0
251	1	5.66348361107	5.79556117555	0.0	0	0	0
252	1	6.22983227734	6.75390779253	0.0	0	0	0
253	1	6.79617732919	5.79555948956	0.0	0	0	0
254	1	7.3625272522	6.75390817162	0.0	0	0	0
255	1	7.9288732572	5.79556264751	0.0	0	0	0
256	1	8.49522370816	6.75390965081	0.0	0	0	0
257	1	9.06157273349	5.79556261437	0.0	0	0	0
258	1	9.62791759549	6.75391039147	0.0	0	0	0
259	1	10.194265483	5.7955611172	0.0	0	0	0
260	1	10.7606152368	6.75390865495	0.0	0	0	0
261	1	11.3269645693	5.79556157101	0.0	0	0	0
262	1	11.8933121132	6.75390922258	0.0	0	0	0
263	1	12.4596585251	5.79556210604	0.0	0	0	0
264	1	13.0260069466	6.75390798591	0.0	0	0	0
265	1	13.5923559974	5.79556119659	0.0	0	0	0
266	1	14.158703444	6.75390788971	0.0	0	0	0
267	1	14.7250502704	5.79556012247	0.0	0	0	0
268	1	15.291401358	6.75390821037	0.0	0	0	0
269	1	15.8577476782	5.7955611429	0.0	0	0	0
270	1	16.4240973452	6.75390937176	0.0	0	0	0
271	1	16.9904428656	5.79556089912	0.0	0	0	0
272	1	17.556793189	6.75390918226	0.0	0	0	0
273	1	18.1231411914	5.79556151687	0.0	0	0	0
274	1	18.6894884133	6.7539078888	0.0	0	0	0
275	1	19.2558364726	5.7955615478	0.0	0	0	0
276	1	19.8221844575	6.75390835235	0.0	0	0	0
277	1	20.3885336406	5.79556084007	0.0	0	0	0
278	1	20.9548796429	6.75390979339	0.0	0	0	0
279	1	21.5212272229	5.79556262279	0.0	0	0	0
280	1	22.0875763126	6.75390909162	0.0	0	0	0
281	1	22.6539240785	5.79556103348	0.0	0	0	0
282	1	23.2202745242	6.75390905153	0.0	0	0	0
283	1	23.7866225683	5.7955600979	0.0	0	0	0
284	1	24.352969164	6.75390839354	0.0	0	0	0
285	1	24.9193170395	5.79556034432	0.0	0	0	0
286	1	25.4856660278	6.75391115892	0.0	0	0	0
287	1	26.0520146581	5.79556117242	0.0	0	0	0
288	1	26.6183615146	6.75390990413	0.0	0	0	0
289	1	27.1847098528	5.7955605525	0.0	0	0	0
290	1	27.7510575966	6.75390856581	0.0	0	0	0
291	1	28.3174061602	5.79556034527	0.0	0	0	0
292	1	28.8837526076	6.75391073591	0.0	0	0	0
293	1	29.450100837	5.7955610311	0.0	0	0	0
294	1	30.0164504837	6.75390793597	0.0	0	0	0
295	1	30.5827968112	5.79555958528	0.0	0	0	0
296	1	31.1491476878	6.75390782909	0.0	0	0	0
297	1	31.715492936	5.79555972767	0.0	0	0	0
298	1	32.2818425178	6.75390799891	0.0	0	0	0
299	1	32.8481901643	5.79555998053	0.0	0	0	0
300	1	33.4145385698	6.75390974628	0.0	0	0	0
301	1	33.9808859259	5.79556254719	0.0	0	0	0
302	1	34.5472340953	6.75391089369	0.0	0	0	0
303	1	35.11358174	5.79556147453	0.0	0	0	0
304	1	35.6799324475	6.75391000836	0.0	0	0	0
305	1	36.2462783058	5.79556188532	0.0	0	0	0
306	1	36.8126286369	6.75390862388	0.0	0	0	0
307	1	37.378974513	5.79556112706	0.0	0	0	0
308	1	37.9453243072	6.75390998839	0.0	0	0	0
309	1	38.5116704307	5.79556265657	0.0	0	0	0
310	1	39.0780191826	6.75390935456	0.0	0	0	0
311	1	39.6443681086	5.79555950105	0.0	0	0	0
312	1	40.2107157198	6.75391053347	0.0	0	0	0
313	1	40.7770639775	5.7955598733	0.0	0	0	0
314	1	41.3434107098	6.7539099571	0.0	0	0	0
315	1	41.9097603502	5.79556070729	0.0	0	0	0
316	1	42.4761061544	6.75390783192	0.0	0	0	0
317	1	43.0424545018	5.79556156063	0.0	0	0	0
318	1	43.6088054863	6.75391013931	0.0	0	0	0
319	1	44.1751516863	5.79556249504	0.0	0	0	0
320	1	44.7414990232	6.75391060984	0.0	0	0	0
321	1	1.24920907564e-06	7.71225768983	0.0	0	0	0
322	1	0.566348561715	8.67060625634	0.0	0	0	0
323	1	1.13269792372	7.71225908673	0.0	0	0	0
324	1	1.69904716575	8.67060735731	0.0	0	0	0
325	1	2.26539482888	7.71225929242	0.0	0	0	0
326	1	2.83174117616	8.67060726991	0.0	0	0	0
327	1	3.39808900684	7.71225712622	0.0	0	0	0
328	1	3.96443898754	8.67060708779	0.0	0	0	0
329	1	4.53078544865	7.71225815155	0.0	0	0	0
330	1	5.09713488819	8.67060520843	0.0	0	0	0
331	1	5.66348364891	7.71225783941	0.0	0	0	0
332	1	6.22982993788	8.67060760726	0.0	0	0	0
333	1	6.79617912606	7.71225714782	0.0	0	0	0
334	1	7.36252610809	8.67060671216	0.0	0	0	0
335	1	7.92887391236	7.71225704708	0.0	0	0	0
336	1	8.49522138741	8.67060719574	0.0	0	0	0
337	1	9.06157232069	7.71225773637	0.0	0	0	0
338	1	9.62791840109	8.67060669083	0.0	0	0	0
339	1	10.1942662084	7.71225856769	0.0	0	0	0
340	1	10.7606150011	8.67060524144	0.0	0	0	0
341	1	11.3269621166	7.71225960078	0.0	0	0	0
342	1	11.8933130084	8.67060504817	0.0	0	0	0
343	1	12.4596584378	7.71225837934	0.0	0	0	0
344	1	13.0260061588	8.67060522316	0.0	0	0	0
345	1	13.5923551058	7.71225636383	0.0	0	0	0
346	1	14.158703554	8.67060482474	0.0	0	0	0
347	1	14.7250502621	7.71225935733	0.0	0	0	0
348	1	15.2913990394	8.67060606282	0.0	0	0	0
349	1	15.8577467	7.71225774042	0.0	0	0	0
350	1	16.4240963549	8.67060753231	0.0	0	0	0
351	1	16.9904442022	7.71225803979	0.0	0	0	0
352	1	17.5567913872	8.6706047689	0.0	0	0	0
353	1	18.1231393454	7.71225774052	0.0	0	0	0
354	1	18.689487566	8.67060553456	0.0	0	0	0
355	1	19.255835218	7.71225703481	0.0	0	0	0
356	1	19.8221842741	8.67060498304	0.0	0	0	0
357	1	20.3885332295	7.71225958024	0.0	0	0	0
358	1	20.9548811605	8.6706078777	0.0	0	0	0
359	1	21.5212276536	7.71225699687	0.0	0	0	0
360	1	22.0875774312	8.67060773635	0.0	0	0	0
361	1	22.6539258187	7.7122583387	0.0	0	0	0
362	1	23.2202728522	8.67060619863	0.0	0	0	0
363	1	23.7866202462	7.71225723546	0.0	0	0	0
364	1	24.3529681146	8.67060641054	0.0	0	0	0
365	1	24.9193181003	7.71225654464	0.0	0	0	0
366	1	25.4856655816	8.67060472842	0.0	0	0	0
367	1	26.0520148991	7.7122562508	0.0	0	0	0
368	1	26.618361867	8.67060789631	0.0	0	0	0
369	1	27.1847107917	7.71225810371	0.0	0	0	0
370	1	27.7510579262	8.67060656765	0.0	0	0	0
371	1	28.3174053796	7.71225671361	0.0	0	0	0
372	1	28.8837545233	8.67060501911	0.0	0	0	0
373	1	29.4501029615	7.71225659975	0.0	0	0	0
374	1	30.0164515128	8.67060483841	0.0	0	0	0
375	1	30.5827988433	7.71225929507	0.0	0	0	0
376	1	31.1491445537	8.67060735928	0.0	0	0	0
377	1	31.715493543	7.71225749652	0.0	0	0	0
378	1	32.2818427653	8.67060780841	0.0	0	0	0
379	1	32.8481920899	7.71225768809	0.0	0	0	0
380	1	33.4145377947	8.67060748539	0.0	0	0	0
381	1	33.9808864385	7.71225710555	0.0	0	0	0
382	1	34.5472363267	8.67060761496	0.0	0	0	0
383	1	35.1135824066	7.71225791758	0.0	0	0	0
384	1	35.6799306483	8.67060614219	0.0	0	0	0
385	1	36.2462805108	7.71225734522	0.0	0	0	0
386	1	36.8126284314	8.67060709128	0.0	0	0	0
387	1	37.3789766569	7.71225764584	0.0	0	0	0
388	1	37.9453223468	8.67060766646	0.0	0	0	0
389	1	38.5116713932	7.71225799491	0.0	0	0	0
390	1	39.0780204383	8.67060661487	0.0	0	0	0
391	1	39.6443683445	7.71225631575	0.0	0	0	0
392	1	40.21071509	8.67060664982	0.0	0	0	0
393	1	40.7770645792	7.71225811381	0.0	0	0	0
394	1	41.3434104277	8.67060761115	0.0	0	0	0
395	1	41.9097606786	7.71225873041	0.0	0	0	0
396	1	42.476107628	8.67060738969	0.0	0	0	0
397	1	43.0424556335	7.7122579943	0.0	0	0	0
398	1	43.6088048536	8.67060561919	0.0	0	0	0
399	1	44.1751517424	7.71225625816	0.0	0	0	0
400	1	44.7415017406	8.6706050692	0.0	0	0	0
401	1	2.09530756755e-06	9.62895549661	0.0	0	0	0
402	1	0.566349179753	10.5873017364	0.0	0	0	0
403	1	1.13269839693	9.62895329181	0.0	0	0	0
404	1	1.69904672145	10.5873040271	0.0	0	0	0
405	1	2.26539468654	9.628956098	0.0	0	0	0
406	1	2.83174077518	10.5873044934	0.0	0	0	0
407	1	3.39808856641	9.62895412548	0.0	0	0	0
408	1	3.9644375062	10.5873029135	0.0	0	0	0
409	1	4.53078479292	9.62895646606	0.0	0	0	0
410	1	5.09713613998	10.5873027765	0.0	0	0	0
411	1	5.6634836088	9.62895345679	0.0	0	0	0
412	1	6.22983202439	10.5873031998	0.0	0	0	0
413	1	6.79617841877	9.62895319639	0.0	0	0	0
414	1	7.36252721686	10.5873040324	0.0	0	0	0
415	1	7.92887644932	9.62895502195	0.0	0	0	0
416	1	8.49522151501	10.5873018089	0.0	0	0	0
417	1	9.06157041783	9.62895496552	0.0	0	0	0
418	1	9.62791771209	10.5873017446	0.0	0	0	0
419	1	10.1942687565	9.62895487647	0.0	0	0	0
420	1	10.7606165616	10.5873025019	0.0	0	0	0
421	1	11.3269648898	9.62895314525	0.0	0	0	0
422	1	11.8933115376	10.5873018385	0.0	0	0	0
423	1	12.4596588264	9.62895487464	0.0	0	0	0
424	1	13.0260071124	10.5873019701	0.0	0	0	0
425	1	13.592355754	9.62895339359	0.0	0	0	0
426	1	14.158702135	10.5873032804	0.0	0	0	0
427	1	14.7250518683	9.6289536149	0.0	0	0	0
428	1	15.2914008641	10.5873034009	0.0	0	0	0
429	1	15.8577481671	9.6289532352	0.0	0	0	0
430	1	16.4240943898	10.5873032821	0.0	0	0	0
431	1	16.9904441327	9.62895589192	0.0	0	0	0
432	1	17.5567923881	10.587303388	0.0	0	0	0
433	1	18.1231388993	9.62895525602	0.0	0	0	0
434	1	18.689486988	10.5873032466	0.0	0	0	0
435	1	19.255836515	9.6289555085	0.0	0	0	0
436	1	19.8221829412	10.5873026508	0.0	0	0	0
437	1	20.3885310903	9.62895643109	0.0	0	0	0
438	1	20.954881335	10.5873035518	0.0	0	0	0
439	1	21.5212288398	9.62895625518	0.0	0	0	0
440	1	22.0875775624	10.587302905	0.0	0	0	0
441	1	22.6539259354	9.62895376826	0.0	0	0	0
442	1	23.2202716871	10.5873027851	0.0	0	0	0
443	1	23.7866198564	9.62895595635	0.0	0	0	0
444	1	24.3529698189	10.5873026318	0.0	0	0	0
445	1	24.9193157085	9.62895526067	0.0	0	0	0
446	1	25.4856655698	10.5873016378	0.0	0	0	0
447	1	26.0520149265	9.62895609471	0.0	0	0	0
448	1	26.6183623309	10.5873049518	0.0	0	0	0
449	1	27.1847113175	9.62895458841	0.0	0	0	0
450	1	27.7510574626	10.5873023404	0.0	0	0	0
451	1	28.3174070686	9.62895346356	0.0	0	0	0
452	1	28.8837537029	10.5873040072	0.0	0	0	0
453	1	29.4501011823	9.62895440441	0.0	0	0	0
454	1	30.016449427	10.5873024163	0.0	0	0	0
455	1	30.5827992747	9.62895456824	0.0	0	0	0
456	1	31.1491459883	10.5873023276	0.0	0	0	0
457	1	31.7154933875	9.62895452412	0.0	0	0	0
458	1	32.2818421014	10.587303302	0.0	0	0	0
459	1	32.8481901675	9.62895649128	0.0	0	0	0
460	1	33.4145391667	10.5873020807	0.0	0	0	0
461	1	33.9808850191	9.62895536567	0.0	0	0	0
462	1	34.5472363987	10.5873024689	0.0	0	0	0
463	1	35.1135841588	9.6289564717	0.0	0	0	0
464	1	35.6799293028	10.5873018215	0.0	0	0	0
465	1	36.2462774181	9.62895487508	0.0	0	0	0
466	1	36.8126255982	10.5873036369	0.0	0	0	0
467	1	37.3789759052	9.62895568918	0.0	0	0	0
468	1	37.9453230617	10.5873025875	0.0	0	0	0
469	1	38.5116695565	9.62895390535	0.0	0	0	0
470	1	39.078019376	10.5873035036	0.0	0	0	0
471	1	39.6443671361	9.628954553	0.0	0	0	0
472	1	40.210715313	10.5873026978	0.0	0	0	0
473	1	40.7770642185	9.62895434547	0.0	0	0	0
474	1	41.3434128698	10.587303136	0.0	0	0	0
475	1	41.9097603743	9.62895437304	0.0	0	0	0
476	1	42.4761076748	10.5873047681	0.0	0	0	0
477	1	43.0424550781	9.62895548947	0.0	0	0	0
478	1	43.6088047895	10.5873046164	0.0	0	0	0
479	1	44.1751518233	9.6289539562	0.0	0	0	0
480	1	44.7414994236	10.587303749	0.0	0	0	0
481	1	3.14325739981e-06	11.5456503891	0.0	0	0	0
482	1	0.566350325049	12.504001502	0.0	0	0	0
483	1	1.13269869977	11.5456504942	0.0	0	0	0
484	1	1.69904577825	12.5039987825	0.0	0	0	0
485	1	2.26539394719	11.5456534617	0.0	0	0	0
486	1	2.83174092156	12.5040010939	0.0	0	0	0
487	1	3.39808935631	11.5456532183	0.0	0	0	0
488	1	3.96443913497	12.5039998217	0.0	0	0	0
489	1	4.53078650958	11.5456525574	0.0	0	0	0
490	1	5.09713476089	12.5039996795	0.0	0	0	0
491	1	5.66348247978	11.5456527457	0.0	0	0	0
492	1	6.22982928053	12.5040002698	0.0	0	0	0
493	1	6.79617738622	11.5456516413	0.0	0	0	0
494	1	7.36252655342	12.5040013827	0.0	0	0	0
495	1	7.92887426985	11.545652241	0.0	0	0	0
496	1	8.49522253189	12.5039994334	0.0	0	0	0
497	1	9.06157230007	11.5456518623	0.0	0	0	0
498	1	9.62791798842	12.5039992381	0.0	0	0	0
499	1	10.1942676662	11.5456508894	0.0	0	0	0
500	1	10.7606167664	12.5039996088	0.0	0	0	0
501	1	11.3269641117	11.5456510417	0.0	0	0	0
502	1	11.8933126994	12.5040002103	0.0	0	0	0
503	1	12.4596592847	11.5456534631	0.0	0	0	0
504	1	13.0260059352	12.5040010853	0.0	0	0	0
505	1	13.5923548367	11.5456525624	0.0	0	0	0
506	1	14.1587045689	12.504000305	0.0	0	0	0
507	1	14.7250502668	11.5456529726	0.0	0	0	0
508	1	15.291400705	12.5040014342	0.0	0	0	0
509	1	15.8577485325	11.5456520672	0.0	0	0	0
510	1	16.4240953265	12.5040005757	0.0	0	0	0
511	1	16.9904425997	11.5456502173	0.0	0	0	0
512	1	17.5567939044	12.5039991359	0.0	0	0	0
513	1	18.1231393344	11.5456504506	0.0	0	0	0
514	1	18.689488907	12.5040014567	0.0	0	0	0
515	1	19.255837662	11.5456520691	0.0	0	0	0
516	1	19.8221845329	12.5040001156	0.0	0	0	0
517	1	20.3885326776	11.5456518652	0.0	0	0	0
518	1	20.9548821428	12.5040018835	0.0	0	0	0
519	1	21.5212302992	11.5456532007	0.0	0	0	0
520	1	22.0875753113	12.5039997225	0.0	0	0	0
521	1	22.6539240959	11.5456510291	0.0	0	0	0
522	1	23.2202734955	12.5039986636	0.0	0	0	0
523	1	23.7866213914	11.5456510705	0.0	0	0	0
524	1	24.3529702455	12.5040006899	0.0	0	0	0
525	1	24.9193163677	11.5456505138	0.0	0	0	0
526	1	25.4856641968	12.5040017867	0.0	0	0	0
527	1	26.05201313	11.5456503192	0.0	0	0	0
528	1	26.6183604766	12.5040013499	0.0	0	0	0
529	1	27.1847092074	11.5456510417	0.0	0	0	0
530	1	27.7510570283	12.5040005718	0.0	0	0	0
531	1	28.3174055629	11.5456517464	0.0	0	0	0
532	1	28.8837538687	12.5040000545	0.0	0	0	0
533	1	29.4501011818	11.5456515042	0.0	0	0	0
534	1	30.0164500432	12.5040004984	0.0	0	0	0
535	1	30.5827968606	11.5456508242	0.0	0	0	0
536	1	31.1491470279	12.5040006784	0.0	0	0	0
537	1	31.7154933397	11.5456520866	0.0	0	0	0
538	1	32.2818418283	12.5040005473	0.0	0	0	0
539	1	32.8481902289	11.5456522685	0.0	0	0	0
540	1	33.4145392622	12.5040009844	0.0	0	0	0
541	1	33.9808878114	11.5456501603	0.0	0	0	0
542	1	34.5472341071	12.5040017547	0.0	0	0	0
543	1	35.1135843598	11.5456507141	0.0	0	0	0
544	1	35.6799304462	12.5040003998	0.0	0	0	0
545	1	36.2462801366	11.545651921	0.0	0	0	0
546	1	36.812626761	12.503998739	0.0	0	0	0
547	1	37.3789765903	11.5456522036	0.0	0	0	0
548	1	37.9453216786	12.5040011587	0.0	0	0	0
549	1	38.5116699983	11.5456520499	0.0	0	0	0
550	1	39.0780184839	12.5039987073	0.0	0	0	0
551	1	39.6443676035	11.5456520466	0.0	0	0	0
552	1	40.2107159771	12.5040005359	0.0	0	0	0
553	1	40.777065046	11.5456523095	0.0	0	0	0
554	1	41.3434116421	12.5040016679	0.0	0	0	0
555	1	41.909758845	11.5456530381	0.0	0	0	0
556	1	42.4761063005	12.5040003034	0.0	0	0	0
557	1	43.0424549841	11.5456533703	0.0	0	0	0
558	1	43.6088040145	12.5039989609	0.0	0	0	0
559	1	44.1751531548	11.5456523568	0.0	0	0	0
560	1	44.7414999648	12.5039994523	0.0	0	0	0
561	1	2.84616636604e-06	13.462347783	0.0	0	0	0
562	1	0.566348816141	14.4206958331	0.0	0	0	0
563	1	1.1326962862	13.4623503964	0.0	0	0	0
564	1	1.69904730345	14.4206979451	0.0	0	0	0
565	1	2.26539567187	13.4623489881	0.0	0	0	0
566	1	2.83174142335	14.4206978657	0.0	0	0	0
567	1	3.39808996605	13.462350051	0.0	0	0	0
568	1	3.96443824576	14.4206978324	0.0	0	0	0
569	1	4.53078627963	13.4623480066	0.0	0	0	0
570	1	5.09713615764	14.420698001	0.0	0	0	0
571	1	5.66348357649	13.4623474774	0.0	0	0	0
572	1	6.2298318115	14.4206986788	0.0	0	0	0
573	1	6.79617890643	13.4623480281	0.0	0	0	0
574	1	7.36252687128	14.4206986913	0.0	0	0	0
575	1	7.92887624076	13.4623500255	0.0	0	0	0
576	1	8.49522230025	14.4206983304	0.0	0	0	0
577	1	9.06157015007	13.4623495018	0.0	0	0	0
578	1	9.62792036546	14.4206964811	0.0	0	0	0
579	1	10.1942669196	13.4623500943	0.0	0	0	0
580	1	10.7606146545	14.4206980604	0.0	0	0	0
581	1	11.3269635092	13.4623493095	0.0	0	0	0
582	1	11.8933127499	14.4206982035	0.0	0	0	0
583	1	12.4596584953	13.4623491193	0.0	0	0	0
584	1	13.0260074444	14.4206971838	0.0	0	0	0
585	1	13.5923546599	13.4623478973	0.0	0	0	0
586	1	14.1587023319	14.4206986015	0.0	0	0	0
587	1	14.7250503024	13.4623489029	0.0	0	0	0
588	1	15.2913991588	14.4206956436	0.0	0	0	0
589	1	15.8577477911	13.4623494246	0.0	0	0	0
590	1	16.4240952497	14.4206967401	0.0	0	0	0
591	1	16.9904449016	13.462347874	0.0	0	0	0
592	1	17.5567907326	14.4206984317	0.0	0	0	0
593	1	18.1231401762	13.4623478452	0.0	0	0	0
594	1	18.6894887404	14.4206967178	0.0	0	0	0
595	1	19.2558376345	13.462347335	0.0	0	0	0
596	1	19.8221862602	14.4206981805	0.0	0	0	0
597	1	20.3885322885	13.4623487931	0.0	0	0	0
598	1	20.9548795349	14.4206978865	0.0	0	0	0
599	1	21.5212284015	13.4623472155	0.0	0	0	0
600	1	22.0875776988	14.4206978	0.0	0	0	0
601	1	22.6539242249	13.4623482261	0.0	0	0	0
602	1	23.2202730095	14.4206981395	0.0	0	0	0
603	1	23.7866217186	13.462348313	0.0	0	0	0
604	1	24.3529705442	14.4206981463	0.0	0	0	0
605	1	24.9193167466	13.4623489067	0.0	0	0	0
606	1	25.4856647108	14.4206987833	0.0	0	0	0
607	1	26.0520129435	13.4623471266	0.0	0	0	0
608	1	26.6183603757	14.4206982942	0.0	0	0	0
609	1	27.1847100047	13.4623490622	0.0	0	0	0
610	1	27.7510574161	14.4206961326	0.0	0	0	0
611	1	28.317404475	13.4623490161	0.0	0	0	0
612	1	28.8837523498	14.4206980806	0.0	0	0	0
613	1	29.4501005986	13.4623486095	0.0	0	0	0
614	1	30.016449173	14.420695855	0.0	0	0	0
615	1	30.5827982454	13.4623495851	0.0	0	0	0
616	1	31.1491451794	14.420695995	0.0	0	0	0
617	1	31.7154934804	13.4623479904	0.0	0	0	0
618	1	32.2818408014	14.4206968851	0.0	0	0	0
619	1	32.8481890221	13.462348	0.0	0	0	0
620	1	33.414537642	14.4206956712	0.0	0	0	0
621	1	33.9808881359	13.4623485788	0.0	0	0	0
622	1	34.5472334173	14.4206973283	0.0	0	0	0
623	1	35.113583633	13.4623497453	0.0	0	0	0
624	1	35.6799294735	14.4206970622	0.0	0	0	0
625	1	36.2462782808	13.4623493089	0.0	0	0	0
626	1	36.8126267989	14.4206963941	0.0	0	0	0
627	1	37.3789744318	13.4623502538	0.0	0	0	0
628	1	37.9453218389	14.420695616	0.0	0	0	0
629	1	38.5116711035	13.4623501278	0.0	0	0	0
630	1	39.0780182181	14.4206982373	0.0	0	0	0
631	1	39.6443677011	13.4623492188	0.0	0	0	0
632	1	40.2107168866	14.4206958032	0.0	0	0	0
633	1	40.7770646697	13.4623476056	0.0	0	0	0
634	1	41.3434118235	14.4206961203	0.0	0	0	0
635	1	41.9097591937	13.4623501655	0.0	0	0	0
636	1	42.4761083282	14.4206962671	0.0	0	0	0
637	1	43.0424567612	13.4623496868	0.0	0	0	0
638	1	43.6088023476	14.4206955978	0.0	0	0	0
639	1	44.1751530869	13.4623502931	0.0	0	0	0
640	1	44.7414984788	14.4206982411	0.0	0	0	0
641	1	2.11706012419e-06	15.3790471156	0.0	0	0	0
642	1	0.566349256044	16.3373926272	0.0	0	0	0
643	1	1.1326987402	15.3790449961	0.0	0	0	0
644	1	1.69904560233	16.3373930622	0.0	0	0	0
645	1	2.26539471429	15.3790460631	0.0	0	0	0
646	1	2.83174315827	16.3373941847	0.0	0	0	0
647	1	3.39809065582	15.379046454	0.0	0	0	0
648	1	3.96443761505	16.3373929652	0.0	0	0	0
649	1	4.53078621612	15.3790471917	0.0	0	0	0
650	1	5.09713318041	16.337392876	0.0	0	0	0
651	1	5.66348275947	15.3790462911	0.0	0	0	0
652	1	6.2298295601	16.3373955878	0.0	0	0	0
653	1	6.79617816758	15.3790460503	0.0	0	0	0
654	1	7.36252677535	16.3373942577	0.0	0	0	0
655	1	7.92887365722	15.3790469445	0.0	0	0	0
656	1	8.49522369925	16.3373939529	0.0	0	0	0
657	1	9.06156993406	15.3790446751	0.0	0	0	0
658	1	9.62791943564	16.3373930177	0.0	0	0	0
659	1	10.1942673759	15.3790453992	0.0	0	0	0
660	1	10.7606146538	16.3373956687	0.0	0	0	0
661	1	11.326964025	15.3790456778	0.0	0	0	0
662	1	11.8933111448	16.337394651	0.0	0	0	0
663	1	12.4596581945	15.3790448696	0.0	0	0	0
664	1	13.0260082848	16.3373935213	0.0	0	0	0
665	1	13.5923563047	15.3790468444	0.0	0	0	0
666	1	14.1587045984	16.3373930737	0.0	0	0	0
667	1	14.7250509168	15.3790464684	0.0	0	0	0
668	1	15.2913995559	16.3373951656	0.0	0	0	0
669	1	15.8577479215	15.3790472325	0.0	0	0	0
670	1	16.4240975707	16.3373946462	0.0	0	0	0
671	1	16.9904426212	15.3790456052	0.0	0	0	0
672	1	17.5567932232	16.3373943007	0.0	0	0	0