LAMMPS data file from restart file: timestep = 234, procs = 1

840 atoms

2 atom types

0.0000000000000000e+00 4.5307846529256608e+01 xlo xhi
-1000 10000 ylo yhi
-2.8317404080785380e-01 2.8317404080785380e-01 zlo zhi

Masses

1 1
2 1

Pair Coeffs

1 1 1
2 1 1

Atoms

1 2 0.00000000000000000 0.00000000000000000 0.000000 0.000000 0.000000 0.000000
3 2 1.13269616323141520 0.00000000000000000 0.000000 0.000000 0.000000 0.000000
2 2 0.56634808161570760 0.98094365212757073 0.000000 0.000000 0.000000 0.000000
5 2 2.26539232646283040 0.00000000000000000 0.000000 0.000000 0.000000 0.000000
4 2 1.69904424484712280 0.98094365212757073 0.000000 0.000000 0.000000 0.000000
7 2 3.39808848969424560 0.00000000000000000 0.000000 0.000000 0.000000 0.000000
6 2 2.83174040807853800 0.98094365212757073 0.000000 0.000000 0.000000 0.000000
8 2 3.96443657130995319 0.98094365212757073 0.000000 0.000000 0.000000 0.000000
9 2 4.53078465292566079 0.00000000000000000 0.000000 0.000000 0.000000 0.000000
10 2 5.09713273454136839 0.98094365212757073 0.000000 0.000000 0.000000 0.000000
11 2 5.66348081615707599 0.00000000000000000 0.000000 0.000000 0.000000 0.000000
13 2 6.79617697938849119 0.00000000000000000 0.000000 0.000000 0.000000 0.000000
12 2 6.22982889777278359 0.98094365212757073 0.000000 0.000000 0.000000 0.000000
15 2 7.92887314261990639 0.00000000000000000 0.000000 0.000000 0.000000 0.000000
14 2 7.36252506100419879 0.98094365212757073 0.000000 0.000000 0.000000 0.000000
17 2 9.06156930585132159 0.00000000000000000 0.000000 0.000000 0.000000 0.000000
16 2 8.49522122423561399 0.98094365212757073 0.000000 0.000000 0.000000 0.000000
18 2 9.62791738746702919 0.98094365212757073 0.000000 0.000000 0.000000 0.000000
19 2 10.19426546908273679 0.00000000000000000 0.000000 0.000000 0.000000 0.000000
20 2 10.76061355069844439 0.98094365212757073 0.000000 0.000000 0.000000 0.000000
21 2 11.32696163231415198 0.00000000000000000 0.000000 0.000000 0.000000 0.000000
23 2 12.45965779554556718 0.00000000000000000 0.000000 0.000000 0.000000 0.000000
22 2 11.89330971392985958 0.98094365212757073 0.000000 0.000000 0.000000 0.000000
25 2 13.59235395877698238 0.00000000000000000 0.000000 0.000000 0.000000 0.000000
24 2 13.02600587716127478 0.98094365212757073 0.000000 0.000000 0.000000 0.000000
27 2 14.72505012200839758 0.00000000000000000 0.000000 0.000000 0.000000 0.000000
26 2 14.15870204039268998 0.98094365212757073 0.000000 0.000000 0.000000 0.000000
28 2 15.29139820362410518 0.98094365212757073 0.000000 0.000000 0.000000 0.000000
29 2 15.85774628523981278 0.00000000000000000 0.000000 0.000000 0.000000 0.000000
30 2 16.42409436685552038 0.98094365212757073 0.000000 0.000000 0.000000 0.000000
31 2 16.99044244847122798 0.00000000000000000 0.000000 0.000000 0.000000 0.000000
33 2 18.12313861170264317 0.00000000000000000 0.000000 0.000000 0.000000 0.000000
32 2 17.55679053008693558 0.98094365212757073 0.000000 0.000000 0.000000 0.000000
35 2 19.25583477493405837 0.00000000000000000 0.000000 0.000000 0.000000 0.000000
34 2 18.68948669331835077 0.98094365212757073 0.000000 0.000000 0.000000 0.000000
37 2 20.38853093816547357 0.00000000000000000 0.000000 0.000000 0.000000 0.000000
36 2 19.82218285654976597 0.98094365212757073 0.000000 0.000000 0.000000 0.000000
38 2 20.95487901978118117 0.98094365212757073 0.000000 0.000000 0.000000 0.000000
39 2 21.52122710139688877 0.00000000000000000 0.000000 0.000000 0.000000 0.000000
40 2 22.08757518301259637 0.98094365212757073 0.000000 0.000000 0.000000 0.000000
41 2 22.65392326462830397 0.00000000000000000 0.000000 0.000000 0.000000 0.000000
43 2 23.78661942785971917 0.00000000000000000 0.000000 0.000000 0.000000 0.000000
42 2 23.22027134624401157 0.98094365212757073 0.000000 0.000000 0.000000 0.000000
45 2 24.91931559109113437 0.00000000000000000 0.000000 0.000000 0.000000 0.000000
44 2 24.35296750947542677 0.98094365212757073 0.000000 0.000000 0.000000 0.000000
47 2 26.05201175432254956 0.00000000000000000 0.000000 0.000000 0.000000 0.000000
46 2 25.48566367270684196 0.98094365212757073 0.000000 0.000000 0.000000 0.000000
48 2 26.61835983593825716 0.98094365212757073 0.000000 0.000000 0.000000 0.000000
49 2 27.18470791755396476 0.00000000000000000 0.000000 0.000000 0.000000 0.000000
50 2 27.75105599916967236 0.98094365212757073 0.000000 0.000000 0.000000 0.000000
51 2 28.31740408078537996 0.00000000000000000 0.000000 0.000000 0.000000 0.000000
53 2 29.45010024401679516 0.00000000000000000 0.000000 0.000000 0.000000 0.000000
52 2 28.88375216240108756 0.98094365212757073 0.000000 0.000000 0.000000 0.000000
55 2 30.58279640724821036 0.00000000000000000 0.000000 0.000000 0.000000 0.000000
54 2 30.01644832563250276 0.98094365212757073 0.000000 0.000000 0.000000 0.000000
57 2 31.71549257047962556 0.00000000000000000 0.000000 0.000000 0.000000 0.000000
56 2 31.14914448886391796 0.98094365212757073 0.000000 0.000000 0.000000 0.000000
58 2 32.28184065209533316 0.98094365212757073 0.000000 0.000000 0.000000 0.000000
59 2 32.84818873371104075 0.00000000000000000 0.000000 0.000000 0.000000 0.000000
60 2 33.41453681532674835 0.98094365212757073 0.000000 0.000000 0.000000 0.000000
61 2 33.98088489694245595 0.00000000000000000 0.000000 0.000000 0.000000 0.000000
63 2 35.11358106017387115 0.00000000000000000 0.000000 0.000000 0.000000 0.000000
62 2 34.54723297855816355 0.98094365212757073 0.000000 0.000000 0.000000 0.000000
65 2 36.24627722340528635 0.00000000000000000 0.000000 0.000000 0.000000 0.000000
64 2 35.67992914178957875 0.98094365212757073 0.000000 0.000000 0.000000 0.000000
67 2 37.37897338663670155 0.00000000000000000 0.000000 0.000000 0.000000 0.000000
66 2 36.81262530502099395 0.98094365212757073 0.000000 0.000000 0.000000 0.000000
68 2 37.94532146825240915 0.98094365212757073 0.000000 0.000000 0.000000 0.000000
69 2 38.51166954986811675 0.00000000000000000 0.000000 0.000000 0.000000 0.000000
70 2 39.07801763148382435 0.98094365212757073 0.000000 0.000000 0.000000 0.000000
71 2 39.64436571309953194 0.00000000000000000 0.000000 0.000000 0.000000 0.000000
73 2 40.77706187633094714 0.00000000000000000 0.000000 0.000000 0.000000 0.000000
72 2 40.21071379471523954 0.98094365212757073 0.000000 0.000000 0.000000 0.000000
75 2 41.90975803956236234 0.00000000000000000 0.000000 0.000000 0.000000 0.000000
74 2 41.34340995794665474 0.98094365212757073 0.000000 0.000000 0.000000 0.000000
77 2 43.04245420279377754 0.00000000000000000 0.000000 0.000000 0.000000 0.000000
76 2 42.47610612117806994 0.98094365212757073 0.000000 0.000000 0.000000 0.000000
78 2 43.60880228440948514 0.98094365212757073 0.000000 0.000000 0.000000 0.000000
79 2 44.17515036602519274 0.00000000000000000 0.000000 0.000000 0.000000 0.000000
80 2 44.74149844764090034 0.98094365212757073 0.000000 0.000000 0.000000 0.000000
81 2 0.00000000000000000 1.96188730425514146 0.000000 0.000000 0.000000 0.000000
83 2 1.13269616323141520 1.96188730425514146 0.000000 0.000000 0.000000 0.000000
85 2 2.26539232646283040 1.96188730425514146 0.000000 0.000000 0.000000 0.000000
87 2 3.39808848969424560 1.96188730425514146 0.000000 0.000000 0.000000 0.000000
89 2 4.53078465292566079 1.96188730425514146 0.000000 0.000000 0.000000 0.000000
91 2 5.66348081615707599 1.96188730425514146 0.000000 0.000000 0.000000 0.000000
93 2 6.79617697938849119 1.96188730425514146 0.000000 0.000000 0.000000 0.000000
95 2 7.92887314261990639 1.96188730425514146 0.000000 0.000000 0.000000 0.000000
97 2 9.06156930585132159 1.96188730425514146 0.000000 0.000000 0.000000 0.000000
99 2 10.19426546908273679 1.96188730425514146 0.000000 0.000000 0.000000 0.000000
101 2 11.32696163231415198 1.96188730425514146 0.000000 0.000000 0.000000 0.000000
103 2 12.45965779554556718 1.96188730425514146 0.000000 0.000000 0.000000 0.000000
105 2 13.59235395877698238 1.96188730425514146 0.000000 0.000000 0.000000 0.000000
107 2 14.72505012200839758 1.96188730425514146 0.000000 0.000000 0.000000 0.000000
109 2 15.85774628523981278 1.96188730425514146 0.000000 0.000000 0.000000 0.000000
111 2 16.99044244847122798 1.96188730425514146 0.000000 0.000000 0.000000 0.000000
113 2 18.12313861170264317 1.96188730425514146 0.000000 0.000000 0.000000 0.000000
115 2 19.25583477493405837 1.96188730425514146 0.000000 0.000000 0.000000 0.000000
117 2 20.38853093816547357 1.96188730425514146 0.000000 0.000000 0.000000 0.000000
119 2 21.52122710139688877 1.96188730425514146 0.000000 0.000000 0.000000 0.000000
121 2 22.65392326462830397 1.96188730425514146 0.000000 0.000000 0.000000 0.000000
123 2 23.78661942785971917 1.96188730425514146 0.000000 0.000000 0.000000 0.000000
125 2 24.91931559109113437 1.96188730425514146 0.000000 0.000000 0.000000 0.000000
127 2 26.05201175432254956 1.96188730425514146 0.000000 0.000000 0.000000 0.000000
129 2 27.18470791755396476 1.96188730425514146 0.000000 0.000000 0.000000 0.000000
131 2 28.31740408078537996 1.96188730425514146 0.000000 0.000000 0.000000 0.000000
133 2 29.45010024401679516 1.96188730425514146 0.000000 0.000000 0.000000 0.000000
135 2 30.58279640724821036 1.96188730425514146 0.000000 0.000000 0.000000 0.000000
137 2 31.71549257047962556 1.96188730425514146 0.000000 0.000000 0.000000 0.000000
139 2 32.84818873371104075 1.96188730425514146 0.000000 0.000000 0.000000 0.000000
141 2 33.98088489694245595 1.96188730425514146 0.000000 0.000000 0.000000 0.000000
143 2 35.11358106017387115 1.96188730425514146 0.000000 0.000000 0.000000 0.000000
145 2 36.24627722340528635 1.96188730425514146 0.000000 0.000000 0.000000 0.000000
147 2 37.37897338663670155 1.96188730425514146 0.000000 0.000000 0.000000 0.000000
149 2 38.51166954986811675 1.96188730425514146 0.000000 0.000000 0.000000 0.000000
151 2 39.64436571309953194 1.96188730425514146 0.000000 0.000000 0.000000 0.000000
153 2 40.77706187633094714 1.96188730425514146 0.000000 0.000000 0.000000 0.000000
155 2 41.90975803956236234 1.96188730425514146 0.000000 0.000000 0.000000 0.000000
157 2 43.04245420279377754 1.96188730425514146 0.000000 0.000000 0.000000 0.000000
159 2 44.17515036602519274 1.96188730425514146 0.000000 0.000000 0.000000 0.000000
82 1 0.56559635097339789 2.91799752561276282 0.000000 0.000000 0.000000 0.000000
84 1 1.69678272043937661 2.91788325138774374 0.000000 0.000000 0.000000 0.000000
86 1 2.82795114148880833 2.91765114373723300 0.000000 0.000000 0.000000 0.000000
88 1 3.95909332983169637 2.91729420567679121 0.000000 0.000000 0.000000 0.000000
90 1 5.09020719223382567 2.91680236838570517 0.000000 0.000000 0.000000 0.000000
92 1 6.22130071277460583 2.91616340265930463 0.000000 0.000000 0.000000 0.000000
94 1 7.35239735733989974 2.91536497415158546 0.000000 0.000000 0.000000 0.000000
96 1 8.48354335903251666 2.91439891758988168 0.000000 0.000000 0.000000 0.000000
98 1 9.61481655501113686 2.91326940284658598 0.000000 0.000000 0.000000 0.000000
100 1 10.74633434506628937 2.91200678392397716 0.000000 0.000000 0.000000 0.000000
102 1 11.87825354994610194 2.91068636170467698 0.000000 0.000000 0.000000 0.000000
104 1 13.01074744952400764 2.90944127732385782 0.000000 0.000000 0.000000 0.000000
106 1 14.14394343458859282 2.90844005300376907 0.000000 0.000000 0.000000 0.000000
108 1 15.27783529546150731 2.90780244380476383 0.000000 0.000000 0.000000 0.000000
110 1 16.41225642948060326 2.90751282705510405 0.000000 0.000000 0.000000 0.000000
112 1 17.54698814304405019 2.90746763402588204 0.000000 0.000000 0.000000 0.000000
114 1 18.68185508851982135 2.90755204921238963 0.000000 0.000000 0.000000 0.000000
116 1 19.81675283970093560 2.90767757075587241 0.000000 0.000000 0.000000 0.000000
118 1 20.95163602590027807 2.90778722799258338 0.000000 0.000000 0.000000 0.000000
120 1 22.08649729618303326 2.90784906405105081 0.000000 0.000000 0.000000 0.000000
122 1 23.22134923307357468 2.90784906405105081 0.000000 0.000000 0.000000 0.000000
124 1 24.35621050335632987 2.90778722799258338 0.000000 0.000000 0.000000 0.000000
126 1 25.49109368955567234 2.90767757075587241 0.000000 0.000000 0.000000 0.000000
128 1 26.62599144073678659 2.90755204921238963 0.000000 0.000000 0.000000 0.000000
130 1 27.76085838621255775 2.90746763402588204 0.000000 0.000000 0.000000 0.000000
132 1 28.89559009977600468 2.90751282705510405 0.000000 0.000000 0.000000 0.000000
134 1 30.03001123379510062 2.90780244380476427 0.000000 0.000000 0.000000 0.000000
136 1 31.16390309466801511 2.90844005300376951 0.000000 0.000000 0.000000 0.000000
138 1 32.29709907973260385 2.90944127732385827 0.000000 0.000000 0.000000 0.000000
140 1 33.42959297931050600 2.91068636170467698 0.000000 0.000000 0.000000 0.000000
142 1 34.56151218419032034 2.91200678392397716 0.000000 0.000000 0.000000 0.000000
144 1 35.69302997424546930 2.91326940284658598 0.000000 0.000000 0.000000 0.000000
146 1 36.82430317022409128 2.91439891758988168 0.000000 0.000000 0.000000 0.000000
148 1 37.95544917191671175 2.91536497415158502 0.000000 0.000000 0.000000 0.000000
150 1 39.08654581648200121 2.91616340265930463 0.000000 0.000000 0.000000 0.000000
152 1 40.21763933702278138 2.91680236838570517 0.000000 0.000000 0.000000 0.000000
154 1 41.34875319942491245 2.91729420567679121 0.000000 0.000000 0.000000 0.000000
156 1 42.47989538776779739 2.91765114373723300 0.000000 0.000000 0.000000 0.000000
158 1 43.61106380881722799 2.91788325138774374 0.000000 0.000000 0.000000 0.000000
160 1 44.74225017828320716 2.91799752561276238 0.000000 0.000000 0.000000 0.000000
161 1 45.30784652925660794 3.87469792676467817 0.000000 0.000000 0.000000 0.000000
162 1 0.56440495903904619 4.83210572769525548 0.000000 0.000000 0.000000 0.000000
163 1 1.12989612610101497 3.87458742141366175 0.000000 0.000000 0.000000 0.000000
164 1 1.69320077570644756 4.83178267447637833 0.000000 0.000000 0.000000 0.000000
165 1 2.25977112026544269 3.87425183657399552 0.000000 0.000000 0.000000 0.000000
166 1 2.82195664480665442 4.83112326127568004 0.000000 0.000000 0.000000 0.000000
167 1 3.38960761681523870 3.87367899318466069 0.000000 0.000000 0.000000 0.000000
168 1 3.95065405941360037 4.83010084682337038 0.000000 0.000000 0.000000 0.000000
169 1 4.51939631943054643 3.87284878660123510 0.000000 0.000000 0.000000 0.000000
170 1 5.07928765635201351 4.82867569091754056 0.000000 0.000000 0.000000 0.000000
171 1 5.64914141840005612 3.87173388914509076 0.000000 0.000000 0.000000 0.000000
172 1 6.20787243083042917 4.82679617876838396 0.000000 0.000000 0.000000 0.000000
173 1 6.77886774868071651 3.87030175968778334 0.000000 0.000000 0.000000 0.000000
174 1 7.33645298041179128 4.82440251637782858 0.000000 0.000000 0.000000 0.000000
175 1 7.90863028081855024 3.86851949978969234 0.000000 0.000000 0.000000 0.000000
176 1 8.46511536622815264 4.82143567746935187 0.000000 0.000000 0.000000 0.000000
177 1 9.03852618904112148 3.86636429445257468 0.000000 0.000000 0.000000 0.000000
178 1 9.59400195037094861 4.81785635081263930 0.000000 0.000000 0.000000 0.000000
179 1 10.16870855963085418 3.86384359798449628 0.000000 0.000000 0.000000 0.000000
180 1 10.72332876525338996 4.81368073749199521 0.000000 0.000000 0.000000 0.000000
181 1 11.29939770180593150 3.86102918917879201 0.000000 0.000000 0.000000 0.000000
182 1 11.85340238399190760 4.80903931731114387 0.000000 0.000000 0.000000 0.000000
183 1 12.43087908008364728 3.85810204208698337 0.000000 0.000000 0.000000 0.000000
184 1 12.98462516773234832 4.80425187336418702 0.000000 0.000000 0.000000 0.000000
185 1 13.56346451100483108 3.85537928077468095 0.000000 0.000000 0.000000 0.000000
186 1 14.11745606550833898 4.79986854711331645 0.000000 0.000000 0.000000 0.000000
187 1 14.69738404887342043 3.85325016611276805 0.000000 0.000000 0.000000 0.000000
188 1 15.25226011350261501 4.79654928889735199 0.000000 0.000000 0.000000 0.000000
189 1 15.83261884519554030 3.85196481657102074 0.000000 0.000000 0.000000 0.000000
190 1 16.38902231252221497 4.79467896404996008 0.000000 0.000000 0.000000 0.000000
191 1 16.96883599427923883 3.85143900779649329 0.000000 0.000000 0.000000 0.000000
192 1 17.52719831677093154 4.79401863601275036 0.000000 0.000000 0.000000 0.000000
193 1 18.10562056434722678 3.85140994777423762 0.000000 0.000000 0.000000 0.000000
194 1 18.66615770373002192 4.79408080982561380 0.000000 0.000000 0.000000 0.000000
195 1 19.24265447692193476 3.85161742654947226 0.000000 0.000000 0.000000 0.000000
196 1 19.80545152004449960 4.79443803719954875 0.000000 0.000000 0.000000 0.000000
197 1 20.37975572334570629 3.85187417420843081 0.000000 0.000000 0.000000 0.000000
198 1 20.94483987503033617 4.79480600955400504 0.000000 0.000000 0.000000 0.000000
199 1 21.51684886250244944 3.85206661936747885 0.000000 0.000000 0.000000 0.000000
200 1 22.08423126308523976 4.79502485737388717 0.000000 0.000000 0.000000 0.000000
201 1 22.65392326462830397 3.85213663579893195 0.000000 0.000000 0.000000 0.000000
202 1 23.22361526617137173 4.79502485737388717 0.000000 0.000000 0.000000 0.000000
203 1 23.79099766675415850 3.85206661936747885 0.000000 0.000000 0.000000 0.000000
204 1 24.36300665422627176 4.79480600955400504 0.000000 0.000000 0.000000 0.000000
205 1 24.92809080591090165 3.85187417420843081 0.000000 0.000000 0.000000 0.000000
206 1 25.50239500921211189 4.79443803719954875 0.000000 0.000000 0.000000 0.000000
207 1 26.06519205233467673 3.85161742654947226 0.000000 0.000000 0.000000 0.000000
208 1 26.64168882552658602 4.79408080982561380 0.000000 0.000000 0.000000 0.000000
209 1 27.20222596490938116 3.85140994777423806 0.000000 0.000000 0.000000 0.000000
210 1 27.78064821248567640 4.79401863601275036 0.000000 0.000000 0.000000 0.000000
211 1 28.33901053497736910 3.85143900779649373 0.000000 0.000000 0.000000 0.000000
212 1 28.91882421673439296 4.79467896404996008 0.000000 0.000000 0.000000 0.000000
213 1 29.47522768406106763 3.85196481657102119 0.000000 0.000000 0.000000 0.000000
214 1 30.05558641575399292 4.79654928889735199 0.000000 0.000000 0.000000 0.000000
215 1 30.61046248038318751 3.85325016611276805 0.000000 0.000000 0.000000 0.000000
216 1 31.19039046374826896 4.79986854711331645 0.000000 0.000000 0.000000 0.000000
217 1 31.74438201825177686 3.85537928077468139 0.000000 0.000000 0.000000 0.000000
218 1 32.32322136152426140 4.80425187336418702 0.000000 0.000000 0.000000 0.000000
219 1 32.87696744917295888 3.85810204208698337 0.000000 0.000000 0.000000 0.000000
220 1 33.45444414526470212 4.80903931731114387 0.000000 0.000000 0.000000 0.000000
221 1 34.00844882745067821 3.86102918917879201 0.000000 0.000000 0.000000 0.000000
222 1 34.58451776400321620 4.81368073749199610 0.000000 0.000000 0.000000 0.000000
223 1 35.13913796962575731 3.86384359798449628 0.000000 0.000000 0.000000 0.000000
224 1 35.71384457888566288 4.81785635081264019 0.000000 0.000000 0.000000 0.000000
225 1 36.26932034021548645 3.86636429445257512 0.000000 0.000000 0.000000 0.000000
226 1 36.84273116302845352 4.82143567746935187 0.000000 0.000000 0.000000 0.000000
227 1 37.39921624843805859 3.86851949978969234 0.000000 0.000000 0.000000 0.000000
228 1 37.97139354884481577 4.82440251637782858 0.000000 0.000000 0.000000 0.000000
229 1 38.52897878057589054 3.87030175968778378 0.000000 0.000000 0.000000 0.000000
230 1 39.09997409842618055 4.82679617876838396 0.000000 0.000000 0.000000 0.000000
231 1 39.65870511085655181 3.87173388914509076 0.000000 0.000000 0.000000 0.000000
232 1 40.22855887290459265 4.82867569091754056 0.000000 0.000000 0.000000 0.000000
233 1 40.78845020982605973 3.87284878660123510 0.000000 0.000000 0.000000 0.000000
234 1 41.35719246984300668 4.83010084682337038 0.000000 0.000000 0.000000 0.000000
235 1 41.91823891244136746 3.87367899318466069 0.000000 0.000000 0.000000 0.000000
236 1 42.48588988444995351 4.83112326127568004 0.000000 0.000000 0.000000 0.000000
237 1 43.04807540899116702 3.87425183657399597 0.000000 0.000000 0.000000 0.000000
238 1 43.61464575355015683 4.83178267447637921 0.000000 0.000000 0.000000 0.000000
239 1 44.17795040315559163 3.87458742141366175 0.000000 0.000000 0.000000 0.000000
240 1 44.74344157021756274 4.83210572769525548 0.000000 0.000000 0.000000 0.000000
241 1 45.30784652925660794 5.79026084628920490 0.000000 0.000000 0.000000 0.000000
242 1 0.56362606282795302 6.74888095088920892 0.000000 0.000000 0.000000 0.000000
243 1 1.12792361712817990 5.79005335845028757 0.000000 0.000000 0.000000 0.000000
244 1 1.69085883773806622 6.74837689036970190 0.000000 0.000000 0.000000 0.000000
245 1 2.25581424161170840 5.78942156757153725 0.000000 0.000000 0.000000 0.000000
246 1 2.81803605600644325 6.74734487417425299 0.000000 0.000000 0.000000 0.000000
247 1 3.38364406160423714 5.78833740287660437 0.000000 0.000000 0.000000 0.000000
248 1 3.94512917009513764 6.74573688343981193 0.000000 0.000000 0.000000 0.000000
249 1 4.51139608561616168 5.78675394313060831 0.000000 0.000000 0.000000 0.000000
250 1 5.07212297975569459 6.74348066751109165 0.000000 0.000000 0.000000 0.000000
251 1 5.63907072041525215 5.78460584244070386 0.000000 0.000000 0.000000 0.000000
252 1 6.19902224907777644 6.74048059353177376 0.000000 0.000000 0.000000 0.000000
253 1 6.76669381687692617 5.78181147309964771 0.000000 0.000000 0.000000 0.000000
254 1 7.32585978483307976 6.73662108645614488 0.000000 0.000000 0.000000 0.000000
255 1 7.89432681914228951 5.77827905733448599 0.000000 0.000000 0.000000 0.000000
256 1 8.45270683388799071 6.73177561525142476 0.000000 0.000000 0.000000 0.000000
257 1 9.02207987272200995 5.77392084800515892 0.000000 0.000000 0.000000 0.000000
258 1 9.57968737765572342 6.72582630466295761 0.000000 0.000000 0.000000 0.000000
259 1 10.15012914778376363 5.76868201344652665 0.000000 0.000000 0.000000 0.000000
260 1 10.70699927378939975 6.71870242106663973 0.000000 0.000000 0.000000 0.000000
261 1 11.27874001771475321 5.76259359246028602 0.000000 0.000000 0.000000 0.000000
262 1 11.83494712897163303 6.71044997043111913 0.000000 0.000000 0.000000 0.000000
263 1 12.40829642569463331 5.75585816526083072 0.000000 0.000000 0.000000 0.000000
264 1 12.96399212186499206 6.70134662810559600 0.000000 0.000000 0.000000 0.000000
265 1 13.53932684182388968 5.74896075339734391 0.000000 0.000000 0.000000 0.000000
266 1 14.09481271787873169 6.69206186551766535 0.000000 0.000000 0.000000 0.000000
267 1 14.67248004411746720 5.74273577439469385 0.000000 0.000000 0.000000 0.000000
268 1 15.22831497813143642 6.68378018099045068 0.000000 0.000000 0.000000 0.000000
269 1 15.80832508038592010 5.73818695650495947 0.000000 0.000000 0.000000 0.000000
270 1 16.36537988541729405 6.67796880941009530 0.000000 0.000000 0.000000 0.000000
271 1 16.94687369264853416 5.73585451847673777 0.000000 0.000000 0.000000 0.000000
272 1 17.50608521562996955 6.67537607004736078 0.000000 0.000000 0.000000 0.000000
273 1 18.08725849635256111 5.73520381009097591 0.000000 0.000000 0.000000 0.000000
274 1 18.64902109809925079 6.67492524519138808 0.000000 0.000000 0.000000 0.000000
275 1 19.22858908324730720 5.73544273261129511 0.000000 0.000000 0.000000 0.000000
276 1 19.79298343578146202 6.67543048976655484 0.000000 0.000000 0.000000 0.000000
277 1 20.37029635905970792 5.73596400344676915 0.000000 0.000000 0.000000 0.000000
278 1 20.93730802066544427 6.67611015813765629 0.000000 0.000000 0.000000 0.000000
279 1 21.51210517428963698 5.73639952907525075 0.000000 0.000000 0.000000 0.000000
280 1 22.08171580966979874 6.67654007313933207 0.000000 0.000000 0.000000 0.000000
281 1 22.65392326462830397 5.73656330324706776 0.000000 0.000000 0.000000 0.000000
282 1 23.22613071958680919 6.67654007313933207 0.000000 0.000000 0.000000 0.000000
283 1 23.79574135496697096 5.73639952907525075 0.000000 0.000000 0.000000 0.000000
284 1 24.37053850859116366 6.67611015813765629 0.000000 0.000000 0.000000 0.000000
285 1 24.93755017019690001 5.73596400344676915 0.000000 0.000000 0.000000 0.000000
286 1 25.51486309347514592 6.67543048976655484 0.000000 0.000000 0.000000 0.000000
287 1 26.07925744600930074 5.73544273261129511 0.000000 0.000000 0.000000 0.000000
288 1 26.65882543115735714 6.67492524519138808 0.000000 0.000000 0.000000 0.000000
289 1 27.22058803290404683 5.73520381009097591 0.000000 0.000000 0.000000 0.000000
290 1 27.80176131362663838 6.67537607004736167 0.000000 0.000000 0.000000 0.000000
291 1 28.36097283660807378 5.73585451847673777 0.000000 0.000000 0.000000 0.000000
292 1 28.94246664383931034 6.67796880941009618 0.000000 0.000000 0.000000 0.000000
293 1 29.49952144887068783 5.73818695650496036 0.000000 0.000000 0.000000 0.000000
294 1 30.07953155112517152 6.68378018099045157 0.000000 0.000000 0.000000 0.000000
295 1 30.63536648513914074 5.74273577439469474 0.000000 0.000000 0.000000 0.000000
296 1 31.21303381137787625 6.69206186551766624 0.000000 0.000000 0.000000 0.000000
297 1 31.76851968743271826 5.74896075339734391 0.000000 0.000000 0.000000 0.000000
298 1 32.34385440739161766 6.70134662810559689 0.000000 0.000000 0.000000 0.000000
299 1 32.89955010356197107 5.75585816526083160 0.000000 0.000000 0.000000 0.000000
300 1 33.47289940028497313 6.71044997043112001 0.000000 0.000000 0.000000 0.000000
301 1 34.02910651154185473 5.76259359246028602 0.000000 0.000000 0.000000 0.000000
302 1 34.60084725546720819 6.71870242106663973 0.000000 0.000000 0.000000 0.000000
303 1 35.15771738147284253 5.76868201344652665 0.000000 0.000000 0.000000 0.000000
304 1 35.72815915160088451 6.72582630466295761 0.000000 0.000000 0.000000 0.000000
305 1 36.28576665653459798 5.77392084800515892 0.000000 0.000000 0.000000 0.000000
306 1 36.85513969536862078 6.73177561525142476 0.000000 0.000000 0.000000 0.000000
307 1 37.41351971011431488 5.77827905733448599 0.000000 0.000000 0.000000 0.000000
308 1 37.98198674442352996 6.73662108645614488 0.000000 0.000000 0.000000 0.000000
309 1 38.54115271237968443 5.78181147309964771 0.000000 0.000000 0.000000 0.000000
310 1 39.10882428017882972 6.74048059353177376 0.000000 0.000000 0.000000 0.000000
311 1 39.66877580884135313 5.78460584244070475 0.000000 0.000000 0.000000 0.000000
312 1 40.23572354950091068 6.74348066751109165 0.000000 0.000000 0.000000 0.000000
313 1 40.79645044364044537 5.78675394313060831 0.000000 0.000000 0.000000 0.000000
314 1 41.36271735916147207 6.74573688343981193 0.000000 0.000000 0.000000 0.000000
315 1 41.92420246765237124 5.78833740287660437 0.000000 0.000000 0.000000 0.000000
316 1 42.48981047325016647 6.74734487417425299 0.000000 0.000000 0.000000 0.000000
317 1 43.05203228764489864 5.78942156757153725 0.000000 0.000000 0.000000 0.000000
318 1 43.61698769151853838 6.74837689036970190 0.000000 0.000000 0.000000 0.000000
319 1 44.17992291212842559 5.79005335845028757 0.000000 0.000000 0.000000 0.000000
320 1 44.74422046642865780 6.74888095088920892 0.000000 0.000000 0.000000 0.000000
321 1 45.30784652925660794 7.70809341161971862 0.000000 0.000000 0.000000 0.000000
322 1 0.56325289737889594 8.66753093659401763 0.000000 0.000000 0.000000 0.000000
323 1 1.12677427666616214 7.70780409558264790 0.000000 0.000000 0.000000 0.000000
324 1 1.68973413117532600 8.66688036457746591 0.000000 0.000000 0.000000 0.000000
325 1 2.25350524429681176 7.70692182938882908 0.000000 0.000000 0.000000 0.000000
326 1 2.81614343223643138 8.66554637474380307 0.000000 0.000000 0.000000 0.000000
327 1 3.38015403729074304 7.70540349107751865 0.000000 0.000000 0.000000 0.000000
328 1 3.94243875750839834 8.66346292167967746 0.000000 0.000000 0.000000 0.000000
329 1 4.50669091853913173 7.70317680987993203 0.000000 0.000000 0.000000 0.000000
330 1 5.06858722992595734 8.66053033703743935 0.000000 0.000000 0.000000 0.000000
331 1 5.63310048590138379 7.70014037253416461 0.000000 0.000000 0.000000 0.000000
332 1 6.19456950504814863 8.65661548082782595 0.000000 0.000000 0.000000 0.000000
333 1 6.75938779468174733 7.69616505143009277 0.000000 0.000000 0.000000 0.000000
334 1 7.32038515717359495 8.65155363753847695 0.000000 0.000000 0.000000 0.000000
335 1 7.88558607731483363 7.69109879177873879 0.000000 0.000000 0.000000 0.000000
336 1 8.44606005173863217 8.64515415915846042 0.000000 0.000000 0.000000 0.000000
337 1 9.01176738651231624 7.68477811420599899 0.000000 0.000000 0.000000 0.000000
338 1 9.57165763391012447 8.63721327570039143 0.000000 0.000000 0.000000 0.000000
339 1 10.13805880462075848 7.67705205392165624 0.000000 0.000000 0.000000 0.000000
340 1 10.69729789907864159 8.62754015915265171 0.000000 0.000000 0.000000 0.000000
341 1 11.26466925951170062 7.66782829230007490 0.000000 0.000000 0.000000 0.000000
342 1 11.82319115413483956 8.61600777521202410 0.000000 0.000000 0.000000 0.000000
343 1 12.39193563471280513 7.65715799204487091 0.000000 0.000000 0.000000 0.000000
344 1 12.94969947322008075 8.60265130576363646 0.000000 0.000000 0.000000 0.000000
345 1 13.52040000882744408 7.64538454459236050 0.000000 0.000000 0.000000 0.000000
346 1 14.07744725745691916 8.58785700580284050 0.000000 0.000000 0.000000 0.000000
347 1 14.65092115705120435 7.63337595389875201 0.000000 0.000000 0.000000 0.000000
348 1 15.20750389957452953 8.57269911809407681 0.000000 0.000000 0.000000 0.000000
349 1 15.78475242691446034 7.62275742066526707 0.000000 0.000000 0.000000 0.000000
350 1 16.34158435843539792 8.55936671784975545 0.000000 0.000000 0.000000 0.000000
351 1 16.92325122341206622 7.61564935000307575 0.000000 0.000000 0.000000 0.000000
352 1 17.48177006031528080 8.55091992756991637 0.000000 0.000000 0.000000 0.000000
353 1 18.06664717657607255 7.61311971913367369 0.000000 0.000000 0.000000 0.000000
354 1 18.62864014133969803 8.54896971590946642 0.000000 0.000000 0.000000 0.000000
355 1 19.21257507140240861 7.61310623656086971 0.000000 0.000000 0.000000 0.000000
356 1 19.77810268819235517 8.54966537105617164 0.000000 0.000000 0.000000 0.000000
357 1 20.35948798446594310 7.61395709363667628 0.000000 0.000000 0.000000 0.000000
358 1 20.92834279986572454 8.55090282503416610 0.000000 0.000000 0.000000 0.000000
359 1 21.50668372574233800 7.61475404676831769 0.000000 0.000000 0.000000 0.000000
360 1 22.07872882168821960 8.55171268661711537 0.000000 0.000000 0.000000 0.000000