LAMMPS data file from restart file: timestep = 7, procs = 1

840 atoms

2 atom types

0.0000000000000000e+00 4.5307846529256608e+01 xlo xhi
-1000 10000 ylo yhi
-2.8317404080785380e-01 2.8317404080785380e-01 zlo zhi

Masses

1 1
2 1

Pair Coeffs

1 1 1
2 1 1

Atoms

1	2	0.0	0.0	0.0	0.000000	0.000000	0.000000
2	2	0.566348081616	0.980943652128	0.0	0.000000	0.000000	0.000000
3	2	1.13269616323	0.0	0.0	0.000000	0.000000	0.000000
4	2	1.69904424485	0.980943652128	0.0	0.000000	0.000000	0.000000
5	2	2.26539232646	0.0	0.0	0.000000	0.000000	0.000000
6	2	2.83174040808	0.980943652128	0.0	0.000000	0.000000	0.000000
7	2	3.39808848969	0.0	0.0	0.000000	0.000000	0.000000
8	2	3.96443657131	0.980943652128	0.0	0.000000	0.000000	0.000000
9	2	4.53078465293	0.0	0.0	0.000000	0.000000	0.000000
10	2	5.09713273454	0.980943652128	0.0	0.000000	0.000000	0.000000
11	2	5.66348081616	0.0	0.0	0.000000	0.000000	0.000000
12	2	6.22982889777	0.980943652128	0.0	0.000000	0.000000	0.000000
13	2	6.79617697939	0.0	0.0	0.000000	0.000000	0.000000
14	2	7.362525061	0.980943652128	0.0	0.000000	0.000000	0.000000
15	2	7.92887314262	0.0	0.0	0.000000	0.000000	0.000000
16	2	8.49522122424	0.980943652128	0.0	0.000000	0.000000	0.000000
17	2	9.06156930585	0.0	0.0	0.000000	0.000000	0.000000
18	2	9.62791738747	0.980943652128	0.0	0.000000	0.000000	0.000000
19	2	10.1942654691	0.0	0.0	0.000000	0.000000	0.000000
20	2	10.7606135507	0.980943652128	0.0	0.000000	0.000000	0.000000
21	2	11.3269616323	0.0	0.0	0.000000	0.000000	0.000000
22	2	11.8933097139	0.980943652128	0.0	0.000000	0.000000	0.000000
23	2	12.4596577955	0.0	0.0	0.000000	0.000000	0.000000
24	2	13.0260058772	0.980943652128	0.0	0.000000	0.000000	0.000000
25	2	13.5923539588	0.0	0.0	0.000000	0.000000	0.000000
26	2	14.1587020404	0.980943652128	0.0	0.000000	0.000000	0.000000
27	2	14.725050122	0.0	0.0	0.000000	0.000000	0.000000
28	2	15.2913982036	0.980943652128	0.0	0.000000	0.000000	0.000000
29	2	15.8577462852	0.0	0.0	0.000000	0.000000	0.000000
30	2	16.4240943669	0.980943652128	0.0	0.000000	0.000000	0.000000
31	2	16.9904424485	0.0	0.0	0.000000	0.000000	0.000000
32	2	17.5567905301	0.980943652128	0.0	0.000000	0.000000	0.000000
33	2	18.1231386117	0.0	0.0	0.000000	0.000000	0.000000
34	2	18.6894866933	0.980943652128	0.0	0.000000	0.000000	0.000000
35	2	19.2558347749	0.0	0.0	0.000000	0.000000	0.000000
36	2	19.8221828565	0.980943652128	0.0	0.000000	0.000000	0.000000
37	2	20.3885309382	0.0	0.0	0.000000	0.000000	0.000000
38	2	20.9548790198	0.980943652128	0.0	0.000000	0.000000	0.000000
39	2	21.5212271014	0.0	0.0	0.000000	0.000000	0.000000
40	2	22.087575183	0.980943652128	0.0	0.000000	0.000000	0.000000
41	2	22.6539232646	0.0	0.0	0.000000	0.000000	0.000000
42	2	23.2202713462	0.980943652128	0.0	0.000000	0.000000	0.000000
43	2	23.7866194279	0.0	0.0	0.000000	0.000000	0.000000
44	2	24.3529675095	0.980943652128	0.0	0.000000	0.000000	0.000000
45	2	24.9193155911	0.0	0.0	0.000000	0.000000	0.000000
46	2	25.4856636727	0.980943652128	0.0	0.000000	0.000000	0.000000
47	2	26.0520117543	0.0	0.0	0.000000	0.000000	0.000000
48	2	26.6183598359	0.980943652128	0.0	0.000000	0.000000	0.000000
49	2	27.1847079176	0.0	0.0	0.000000	0.000000	0.000000
50	2	27.7510559992	0.980943652128	0.0	0.000000	0.000000	0.000000
51	2	28.3174040808	0.0	0.0	0.000000	0.000000	0.000000
52	2	28.8837521624	0.980943652128	0.0	0.000000	0.000000	0.000000
53	2	29.450100244	0.0	0.0	0.000000	0.000000	0.000000
54	2	30.0164483256	0.980943652128	0.0	0.000000	0.000000	0.000000
55	2	30.5827964072	0.0	0.0	0.000000	0.000000	0.000000
56	2	31.1491444889	0.980943652128	0.0	0.000000	0.000000	0.000000
57	2	31.7154925705	0.0	0.0	0.000000	0.000000	0.000000
58	2	32.2818406521	0.980943652128	0.0	0.000000	0.000000	0.000000
59	2	32.8481887337	0.0	0.0	0.000000	0.000000	0.000000
60	2	33.4145368153	0.980943652128	0.0	0.000000	0.000000	0.000000
61	2	33.9808848969	0.0	0.0	0.000000	0.000000	0.000000
62	2	34.5472329786	0.980943652128	0.0	0.000000	0.000000	0.000000
63	2	35.1135810602	0.0	0.0	0.000000	0.000000	0.000000
64	2	35.6799291418	0.980943652128	0.0	0.000000	0.000000	0.000000
65	2	36.2462772234	0.0	0.0	0.000000	0.000000	0.000000
66	2	36.812625305	0.980943652128	0.0	0.000000	0.000000	0.000000
67	2	37.3789733866	0.0	0.0	0.000000	0.000000	0.000000
68	2	37.9453214683	0.980943652128	0.0	0.000000	0.000000	0.000000
69	2	38.5116695499	0.0	0.0	0.000000	0.000000	0.000000
70	2	39.0780176315	0.980943652128	0.0	0.000000	0.000000	0.000000
71	2	39.6443657131	0.0	0.0	0.000000	0.000000	0.000000
72	2	40.2107137947	0.980943652128	0.0	0.000000	0.000000	0.000000
73	2	40.7770618763	0.0	0.0	0.000000	0.000000	0.000000
74	2	41.3434099579	0.980943652128	0.0	0.000000	0.000000	0.000000
75	2	41.9097580396	0.0	0.0	0.000000	0.000000	0.000000
76	2	42.4761061212	0.980943652128	0.0	0.000000	0.000000	0.000000
77	2	43.0424542028	0.0	0.0	0.000000	0.000000	0.000000
78	2	43.6088022844	0.980943652128	0.0	0.000000	0.000000	0.000000
79	2	44.175150366	0.0	0.0	0.000000	0.000000	0.000000
80	2	44.7414984476	0.980943652128	0.0	0.000000	0.000000	0.000000
81	2	0.0	1.96188730426	0.0	0.000000	0.000000	0.000000
82	1	0.565600636791	2.9180331712	0.0	0.000000	0.000000	0.000000
83	2	1.13269616323	1.96188730426	0.0	0.000000	0.000000	0.000000
84	1	1.69679554953	2.91791920469	0.0	0.000000	0.000000	0.000000
85	2	2.26539232646	1.96188730426	0.0	0.000000	0.000000	0.000000
86	1	2.8279724234	2.91768772264	0.0	0.000000	0.000000	0.000000
87	2	3.39808848969	1.96188730426	0.0	0.000000	0.000000	0.000000
88	1	3.95912289392	2.91733174841	0.0	0.000000	0.000000	0.000000
89	2	4.53078465293	1.96188730426	0.0	0.000000	0.000000	0.000000
90	1	5.09024475073	2.91684124247	0.0	0.000000	0.000000	0.000000
91	2	5.66348081616	1.96188730426	0.0	0.000000	0.000000	0.000000
92	1	6.22134579292	2.91620400829	0.0	0.000000	0.000000	0.000000
93	2	6.79617697939	1.96188730426	0.0	0.000000	0.000000	0.000000
94	1	7.35244918264	2.91540773058	0.0	0.000000	0.000000	0.000000
95	2	7.92887314262	1.96188730426	0.0	0.000000	0.000000	0.000000
96	1	8.48360065082	2.91444420523	0.0	0.000000	0.000000	0.000000
97	2	9.06156930585	1.96188730426	0.0	0.000000	0.000000	0.000000
98	1	9.614877223	2.91331740494	0.0	0.000000	0.000000	0.000000
99	2	10.1942654691	1.96188730426	0.0	0.000000	0.000000	0.000000
100	1	10.7463950651	2.91205713008	0.0	0.000000	0.000000	0.000000
101	2	11.3269616323	1.96188730426	0.0	0.000000	0.000000	0.000000
102	1	11.8783093519	2.91073746717	0.0	0.000000	0.000000	0.000000
103	2	12.4596577955	1.96188730426	0.0	0.000000	0.000000	0.000000
104	1	13.0107917561	2.90948947117	0.0	0.000000	0.000000	0.000000
105	2	13.5923539588	1.96188730426	0.0	0.000000	0.000000	0.000000
106	1	14.1439694544	2.90847930283	0.0	0.000000	0.000000	0.000000
107	2	14.725050122	1.96188730426	0.0	0.000000	0.000000	0.000000
108	1	15.2778394128	2.90782635128	0.0	0.000000	0.000000	0.000000
109	2	15.8577462852	1.96188730426	0.0	0.000000	0.000000	0.000000
110	1	16.4122414774	2.90751882696	0.0	0.000000	0.000000	0.000000
111	2	16.9904424485	1.96188730426	0.0	0.000000	0.000000	0.000000
112	1	17.5469614423	2.90745717899	0.0	0.000000	0.000000	0.000000
113	2	18.1231386117	1.96188730426	0.0	0.000000	0.000000	0.000000
114	1	18.68182493	2.90752859242	0.0	0.000000	0.000000	0.000000
115	2	19.2558347749	1.96188730426	0.0	0.000000	0.000000	0.000000
116	1	19.8167262875	2.90764493115	0.0	0.000000	0.000000	0.000000
117	2	20.3885309382	1.96188730426	0.0	0.000000	0.000000	0.000000
118	1	20.95161813	2.90774887211	0.0	0.000000	0.000000	0.000000
119	2	21.5212271014	1.96188730426	0.0	0.000000	0.000000	0.000000
120	1	22.0864910093	2.9078079935	0.0	0.000000	0.000000	0.000000
121	2	22.6539232646	1.96188730426	0.0	0.000000	0.000000	0.000000
122	1	23.2213555199	2.9078079935	0.0	0.000000	0.000000	0.000000
123	2	23.7866194279	1.96188730426	0.0	0.000000	0.000000	0.000000
124	1	24.3562283993	2.90774887211	0.0	0.000000	0.000000	0.000000
125	2	24.9193155911	1.96188730426	0.0	0.000000	0.000000	0.000000
126	1	25.4911202417	2.90764493115	0.0	0.000000	0.000000	0.000000
127	2	26.0520117543	1.96188730426	0.0	0.000000	0.000000	0.000000
128	1	26.6260215992	2.90752859242	0.0	0.000000	0.000000	0.000000
129	2	27.1847079176	1.96188730426	0.0	0.000000	0.000000	0.000000
130	1	27.7608850869	2.90745717899	0.0	0.000000	0.000000	0.000000
131	2	28.3174040808	1.96188730426	0.0	0.000000	0.000000	0.000000
132	1	28.8956050519	2.90751882696	0.0	0.000000	0.000000	0.000000
133	2	29.450100244	1.96188730426	0.0	0.000000	0.000000	0.000000
134	1	30.0300071164	2.90782635128	0.0	0.000000	0.000000	0.000000
135	2	30.5827964072	1.96188730426	0.0	0.000000	0.000000	0.000000
136	1	31.1638770749	2.90847930283	0.0	0.000000	0.000000	0.000000
137	2	31.7154925705	1.96188730426	0.0	0.000000	0.000000	0.000000
138	1	32.2970547732	2.90948947117	0.0	0.000000	0.000000	0.000000
139	2	32.8481887337	1.96188730426	0.0	0.000000	0.000000	0.000000
140	1	33.4295371774	2.91073746717	0.0	0.000000	0.000000	0.000000
141	2	33.9808848969	1.96188730426	0.0	0.000000	0.000000	0.000000
142	1	34.5614514641	2.91205713008	0.0	0.000000	0.000000	0.000000
143	2	35.1135810602	1.96188730426	0.0	0.000000	0.000000	0.000000
144	1	35.6929693063	2.91331740494	0.0	0.000000	0.000000	0.000000
145	2	36.2462772234	1.96188730426	0.0	0.000000	0.000000	0.000000
146	1	36.8242458784	2.91444420523	0.0	0.000000	0.000000	0.000000
147	2	37.3789733866	1.96188730426	0.0	0.000000	0.000000	0.000000
148	1	37.9553973466	2.91540773058	0.0	0.000000	0.000000	0.000000
149	2	38.5116695499	1.96188730426	0.0	0.000000	0.000000	0.000000
150	1	39.0865007363	2.91620400829	0.0	0.000000	0.000000	0.000000
151	2	39.6443657131	1.96188730426	0.0	0.000000	0.000000	0.000000
152	1	40.2176017785	2.91684124247	0.0	0.000000	0.000000	0.000000
153	2	40.7770618763	1.96188730426	0.0	0.000000	0.000000	0.000000
154	1	41.3487236353	2.91733174841	0.0	0.000000	0.000000	0.000000
155	2	41.9097580396	1.96188730426	0.0	0.000000	0.000000	0.000000
156	1	42.4798741059	2.91768772264	0.0	0.000000	0.000000	0.000000
157	2	43.0424542028	1.96188730426	0.0	0.000000	0.000000	0.000000
158	1	43.6110509797	2.91791920469	0.0	0.000000	0.000000	0.000000
159	2	44.175150366	1.96188730426	0.0	0.000000	0.000000	0.000000
160	1	44.7422458925	2.9180331712	0.0	0.000000	0.000000	0.000000
161	1	9e-17	3.87476437369	0.0	0.000000	0.000000	0.000000
162	1	0.564417221107	4.83219819214	0.0	0.000000	0.000000	0.000000
163	1	1.12991282393	3.87465418965	0.0	0.000000	0.000000	0.000000
164	1	1.69323747027	4.83187614884	0.0	0.000000	0.000000	0.000000
165	1	2.25980439294	3.87431958101	0.0	0.000000	0.000000	0.000000
166	1	2.82201748573	4.8312187958	0.0	0.000000	0.000000	0.000000
167	1	3.38965719915	3.87374840632	0.0	0.000000	0.000000	0.000000
168	1	3.95073853015	4.83019957554	0.0	0.000000	0.000000	0.000000
169	1	4.51946176033	3.87292062551	0.0	0.000000	0.000000	0.000000
170	1	5.07939494198	4.82877887919	0.0	0.000000	0.000000	0.000000
171	1	5.64922200104	3.87180900182	0.0	0.000000	0.000000	0.000000
172	1	6.20800130485	4.82690526944	0.0	0.000000	0.000000	0.000000
173	1	6.77896235473	3.87038110018	0.0	0.000000	0.000000	0.000000
174	1	7.33660162563	4.8245191537	0.0	0.000000	0.000000	0.000000
175	1	7.90873716908	3.8686041031	0.0	0.000000	0.000000	0.000000
176	1	8.46528109931	4.82156165391	0.0	0.000000	0.000000	0.000000
177	1	9.03864264914	3.86645514185	0.0	0.000000	0.000000	0.000000
178	1	9.5941808077	4.81799335264	0.0	0.000000	0.000000	0.000000
179	1	10.1688304035	3.86394122991	0.0	0.000000	0.000000	0.000000
180	1	10.7235148946	4.81382964458	0.0	0.000000	0.000000	0.000000
181	1	11.2995185999	3.86113282354	0.0	0.000000	0.000000	0.000000
182	1	11.8535871888	4.80919866066	0.0	0.000000	0.000000	0.000000
183	1	12.4309899186	3.85820795185	0.0	0.000000	0.000000	0.000000
184	1	12.984796264	4.80441506818	0.0	0.000000	0.000000	0.000000
185	1	13.56355342	3.85547871268	0.0	0.000000	0.000000	0.000000
186	1	14.1175966909	4.80002038691	0.0	0.000000	0.000000	0.000000
187	1	14.697438652	3.85332885759	0.0	0.000000	0.000000	0.000000
188	1	15.2523514284	4.79666514662	0.0	0.000000	0.000000	0.000000
189	1	15.8326324855	3.85200819126	0.0	0.000000	0.000000	0.000000
190	1	16.3890530833	4.79473406388	0.0	0.000000	0.000000	0.000000
191	1	16.9688148681	3.85144248635	0.0	0.000000	0.000000	0.000000
192	1	17.527179064	4.7940079291	0.0	0.000000	0.000000	0.000000
193	1	18.1055791288	3.85137804893	0.0	0.000000	0.000000	0.000000
194	1	18.6661110276	4.79401428504	0.0	0.000000	0.000000	0.000000
195	1	19.2426083887	3.85155855682	0.0	0.000000	0.000000	0.000000
196	1	19.8054004115	4.79433083073	0.0	0.000000	0.000000	0.000000
197	1	20.3797178126	3.85179711535	0.0	0.000000	0.000000	0.000000
198	1	20.9448020453	4.79467309957	0.0	0.000000	0.000000	0.000000
199	1	21.5168277703	3.85197925492	0.0	0.000000	0.000000	0.000000
200	1	22.0842174626	4.79487965521	0.0	0.000000	0.000000	0.000000
201	1	22.6539232646	3.85204595218	0.0	0.000000	0.000000	0.000000
202	1	23.2236290666	4.79487965521	0.0	0.000000	0.000000	0.000000
203	1	23.7910187589	3.85197925492	0.0	0.000000	0.000000	0.000000
204	1	24.3630444839	4.79467309957	0.0	0.000000	0.000000	0.000000
205	1	24.9281287166	3.85179711535	0.0	0.000000	0.000000	0.000000
206	1	25.5024461178	4.79433083073	0.0	0.000000	0.000000	0.000000
207	1	26.0652381406	3.85155855682	0.0	0.000000	0.000000	0.000000
208	1	26.6417355017	4.79401428504	0.0	0.000000	0.000000	0.000000
209	1	27.2022674004	3.85137804893	0.0	0.000000	0.000000	0.000000
210	1	27.7806674653	4.7940079291	0.0	0.000000	0.000000	0.000000
211	1	28.3390316612	3.85144248635	0.0	0.000000	0.000000	0.000000
212	1	28.918793446	4.79473406388	0.0	0.000000	0.000000	0.000000
213	1	29.4752140437	3.85200819126	0.0	0.000000	0.000000	0.000000
214	1	30.0554951008	4.79666514662	0.0	0.000000	0.000000	0.000000
215	1	30.6104078773	3.85332885759	0.0	0.000000	0.000000	0.000000
216	1	31.1902498383	4.80002038691	0.0	0.000000	0.000000	0.000000
217	1	31.7442931092	3.85547871268	0.0	0.000000	0.000000	0.000000
218	1	32.3230502652	4.80441506818	0.0	0.000000	0.000000	0.000000
219	1	32.8768566106	3.85820795185	0.0	0.000000	0.000000	0.000000
220	1	33.4542593404	4.80919866066	0.0	0.000000	0.000000	0.000000
221	1	34.0083279293	3.86113282354	0.0	0.000000	0.000000	0.000000
222	1	34.5843316347	4.81382964458	0.0	0.000000	0.000000	0.000000
223	1	35.1390161257	3.86394122991	0.0	0.000000	0.000000	0.000000
224	1	35.7136657216	4.81799335264	0.0	0.000000	0.000000	0.000000
225	1	36.2692038801	3.86645514185	0.0	0.000000	0.000000	0.000000
226	1	36.8425654299	4.82156165391	0.0	0.000000	0.000000	0.000000
227	1	37.3991093602	3.8686041031	0.0	0.000000	0.000000	0.000000
228	1	37.9712449036	4.8245191537	0.0	0.000000	0.000000	0.000000
229	1	38.5288841745	3.87038110018	0.0	0.000000	0.000000	0.000000
230	1	39.0998452244	4.82690526944	0.0	0.000000	0.000000	0.000000
231	1	39.6586245282	3.87180900182	0.0	0.000000	0.000000	0.000000
232	1	40.2284515873	4.82877887919	0.0	0.000000	0.000000	0.000000
233	1	40.7883847689	3.87292062551	0.0	0.000000	0.000000	0.000000
234	1	41.3571079991	4.83019957554	0.0	0.000000	0.000000	0.000000
235	1	41.9181893301	3.87374840632	0.0	0.000000	0.000000	0.000000
236	1	42.4858290435	4.8312187958	0.0	0.000000	0.000000	0.000000
237	1	43.0480421363	3.87431958101	0.0	0.000000	0.000000	0.000000
238	1	43.614609059	4.83187614884	0.0	0.000000	0.000000	0.000000
239	1	44.1779337053	3.87465418965	0.0	0.000000	0.000000	0.000000
240	1	44.7434293081	4.83219819214	0.0	0.000000	0.000000	0.000000
241	1	1.9e-16	5.79037424686	0.0	0.000000	0.000000	0.000000
242	1	0.563645734402	6.74901088598	0.0	0.000000	0.000000	0.000000
243	1	1.12795564062	5.79016745253	0.0	0.000000	0.000000	0.000000
244	1	1.69091771919	6.74850861089	0.0	0.000000	0.000000	0.000000
245	1	2.25587805092	5.7895377687	0.0	0.000000	0.000000	0.000000
246	1	2.81813373786	6.74748022769	0.0	0.000000	0.000000	0.000000
247	1	3.38373915866	5.78845720642	0.0	0.000000	0.000000	0.000000
248	1	3.94526493708	6.74587784632	0.0	0.000000	0.000000	0.000000
249	1	4.51152166341	5.78687898729	0.0	0.000000	0.000000	0.000000
250	1	5.0722957594	6.74362941833	0.0	0.000000	0.000000	0.000000
251	1	5.63922558211	5.78473797414	0.0	0.000000	0.000000	0.000000
252	1	6.19923053488	6.74063958894	0.0	0.000000	0.000000	0.000000
253	1	6.76687625176	5.78195280748	0.0	0.000000	0.000000	0.000000
254	1	7.32610152719	6.73679312156	0.0	0.000000	0.000000	0.000000
255	1	7.89453441807	5.77843199627	0.0	0.000000	0.000000	0.000000
256	1	8.4529792841	6.73196382167	0.0	0.000000	0.000000	0.000000
257	1	9.02230925343	5.77408797439	0.0	0.000000	0.000000	0.000000
258	1	9.57998684939	6.72603398361	0.0	0.000000	0.000000	0.000000
259	1	10.1503755339	5.76886568538	0.0	0.000000	0.000000	0.000000
260	1	10.707320735	6.71893250358	0.0	0.000000	0.000000	0.000000
261	1	11.2789965595	5.7627949035	0.0	0.000000	0.000000	0.000000
262	1	11.8352834236	6.7107037071	0.0	0.000000	0.000000	0.000000
263	1	12.4085530613	5.75607472953	0.0	0.000000	0.000000	0.000000
264	1	12.9643324182	6.7016208014	0.0	0.000000	0.000000	0.000000
265	1	13.5395684872	5.74918272407	0.0	0.000000	0.000000	0.000000
266	1	14.0951395856	6.69234351128	0.0	0.000000	0.000000	0.000000
267	1	14.67268459	5.74294049573	0.0	0.000000	0.000000	0.000000
268	1	15.2286001023	6.68403857002	0.0	0.000000	0.000000	0.000000
269	1	15.8084648035	5.73833691311	0.0	0.000000	0.000000	0.000000
270	1	16.3655829236	6.67815017173	0.0	0.000000	0.000000	0.000000
271	1	16.9469294721	5.73591121648	0.0	0.000000	0.000000	0.000000
272	1	17.5061730353	6.6754216656	0.0	0.000000	0.000000	0.000000
273	1	18.087247607	5.73516461386	0.0	0.000000	0.000000	0.000000
274	1	18.6490230434	6.67484042594	0.0	0.000000	0.000000	0.000000
275	1	19.2285444337	5.73532653987	0.0	0.000000	0.000000	0.000000
276	1	19.7929460496	6.67524786719	0.0	0.000000	0.000000	0.000000
277	1	20.3702485914	5.73579486295	0.0	0.000000	0.000000	0.000000
278	1	20.9372697669	6.67586531439	0.0	0.000000	0.000000	0.000000
279	1	21.512075854	5.73620013025	0.0	0.000000	0.000000	0.000000
280	1	22.081700414	6.67626538637	0.0	0.000000	0.000000	0.000000
281	1	22.6539232646	5.73635412328	0.0	0.000000	0.000000	0.000000
282	1	23.2261461152	6.67626538637	0.0	0.000000	0.000000	0.000000
283	1	23.7957706752	5.73620013025	0.0	0.000000	0.000000	0.000000
284	1	24.3705767623	6.67586531439	0.0	0.000000	0.000000	0.000000
285	1	24.9375979379	5.73579486295	0.0	0.000000	0.000000	0.000000
286	1	25.5149004797	6.67524786719	0.0	0.000000	0.000000	0.000000
287	1	26.0793020955	5.73532653987	0.0	0.000000	0.000000	0.000000
288	1	26.6588234858	6.67484042594	0.0	0.000000	0.000000	0.000000
289	1	27.2205989222	5.73516461386	0.0	0.000000	0.000000	0.000000
290	1	27.801673494	6.6754216656	0.0	0.000000	0.000000	0.000000
291	1	28.3609170571	5.73591121648	0.0	0.000000	0.000000	0.000000
292	1	28.9422636056	6.67815017173	0.0	0.000000	0.000000	0.000000
293	1	29.4993817258	5.73833691311	0.0	0.000000	0.000000	0.000000
294	1	30.0792464269	6.68403857002	0.0	0.000000	0.000000	0.000000
295	1	30.6351619392	5.74294049573	0.0	0.000000	0.000000	0.000000
296	1	31.2127069437	6.69234351128	0.0	0.000000	0.000000	0.000000
297	1	31.768278042	5.74918272407	0.0	0.000000	0.000000	0.000000
298	1	32.343514111	6.7016208014	0.0	0.000000	0.000000	0.000000
299	1	32.899293468	5.75607472953	0.0	0.000000	0.000000	0.000000
300	1	33.4725631057	6.7107037071	0.0	0.000000	0.000000	0.000000
301	1	34.0288499698	5.7627949035	0.0	0.000000	0.000000	0.000000
302	1	34.6005257943	6.71893250358	0.0	0.000000	0.000000	0.000000
303	1	35.1574709954	5.76886568538	0.0	0.000000	0.000000	0.000000
304	1	35.7278596799	6.72603398361	0.0	0.000000	0.000000	0.000000
305	1	36.2855372758	5.77408797439	0.0	0.000000	0.000000	0.000000
306	1	36.8548672452	6.73196382167	0.0	0.000000	0.000000	0.000000
307	1	37.4133121112	5.77843199627	0.0	0.000000	0.000000	0.000000
308	1	37.9817450021	6.73679312156	0.0	0.000000	0.000000	0.000000
309	1	38.5409702775	5.78195280748	0.0	0.000000	0.000000	0.000000
310	1	39.1086159944	6.74063958894	0.0	0.000000	0.000000	0.000000
311	1	39.6686209471	5.78473797414	0.0	0.000000	0.000000	0.000000
312	1	40.2355507699	6.74362941833	0.0	0.000000	0.000000	0.000000
313	1	40.7963248658	5.78687898729	0.0	0.000000	0.000000	0.000000
314	1	41.3625815922	6.74587784632	0.0	0.000000	0.000000	0.000000
315	1	41.9241073706	5.78845720642	0.0	0.000000	0.000000	0.000000
316	1	42.4897127914	6.74748022769	0.0	0.000000	0.000000	0.000000
317	1	43.0519684783	5.7895377687	0.0	0.000000	0.000000	0.000000
318	1	43.6169288101	6.74850861089	0.0	0.000000	0.000000	0.000000
319	1	44.1798908886	5.79016745253	0.0	0.000000	0.000000	0.000000
320	1	44.7442007949	6.74901088598	0.0	0.000000	0.000000	0.000000
321	1	2.8e-16	7.70823474059	0.0	0.000000	0.000000	0.000000
322	1	0.56327955556	8.66767953464	0.0	0.000000	0.000000	0.000000
323	1	1.12682067096	7.70794650613	0.0	0.000000	0.000000	0.000000
324	1	1.68981398425	8.6670314976	0.0	0.000000	0.000000	0.000000
325	1	2.25359776015	7.70706751664	0.0	0.000000	0.000000	0.000000
326	1	2.81627611105	8.66570263835	0.0	0.000000	0.000000	0.000000
327	1	3.38029211464	7.70555474826	0.0	0.000000	0.000000	0.000000
328	1	3.94262363158	8.66362703579	0.0	0.000000	0.000000	0.000000
329	1	4.5068736811	7.70333609989	0.0	0.000000	0.000000	0.000000
330	1	5.06882338689	8.66070521404	0.0	0.000000	0.000000	0.000000
331	1	5.63332669841	7.70031040484	0.0	0.000000	0.000000	0.000000
332	1	6.19485572559	8.65680429642	0.0	0.000000	0.000000	0.000000
333	1	6.75965580596	7.69634885692	0.0	0.000000	0.000000	0.000000
334	1	7.32071988695	8.65175989582	0.0	0.000000	0.000000	0.000000
335	1	7.88589374491	7.69129977321	0.0	0.000000	0.000000	0.000000
336	1	8.44644136572	8.64538173213	0.0	0.000000	0.000000	0.000000
337	1	9.01211196665	7.68500002202	0.0	0.000000	0.000000	0.000000
338	1	9.57208317185	8.63746637571	0.0	0.000000	0.000000	0.000000
339	1	10.1384367586	7.67729878277	0.0	0.000000	0.000000	0.000000
340	1	10.6977647097	8.6278231571	0.0	0.000000	0.000000	0.000000
341	1	11.2650758512	7.66810328488	0.0	0.000000	0.000000	0.000000
342	1	11.8236952946	8.61632466592	0.0	0.000000	0.000000	0.000000
343	1	12.392364027	7.65746280374	0.0	0.000000	0.000000	0.000000
344	1	12.9502350062	8.60300433062	0.0	0.000000	0.000000	0.000000
345	1	13.5208392441	7.64571563495	0.0	0.000000	0.000000	0.000000
346	1	14.0780038308	8.5882432121	0.0	0.000000	0.000000	0.000000
347	1	14.6513519041	7.63371797916	0.0	0.000000	0.000000	0.000000
348	1	15.208061121	8.57310212689	0.0	0.000000	0.000000	0.000000
349	1	15.7851394175	7.62307138896	0.0	0.000000	0.000000	0.000000
350	1	16.3420999515	8.55973976592	0.0	0.000000	0.000000	0.000000
351	1	16.9235365213	7.61586092152	0.0	0.000000	0.000000	0.000000
352	1	17.4821627653	8.55116335226	0.0	0.000000	0.000000	0.000000
353	1	18.0667721186	7.61313784725	0.0	0.000000	0.000000	0.000000
354	1	18.6288037188	8.54893811549	0.0	0.000000	0.000000	0.000000
355	1	19.2125920324	7.61295527336	0.0	0.000000	0.000000	0.000000
356	1	19.7781344769	8.54942366096	0.0	0.000000	0.000000	0.000000
357	1	20.3594613537	7.61368972017	0.0	0.000000	0.000000	0.000000
358	1	20.9283289238	8.55053134768	0.0	0.000000	0.000000	0.000000
359	1	21.5066590338	7.61442042332	0.0	0.000000	0.000000	0.000000
360	1	22.0787188374	8.55127969722	0.0	0.000000	0.000000	0.000000
361	1	22.6539232646	7.61470687457	0.0	0.000000	0.000000	0.000000
362	1	23.2291276919	8.55127969722	0.0	0.000000	0.000000	0.000000
363	1	23.8011874955	7.61442042332	0.0	0.000000	0.000000	0.000000
364	1	24.3795176055	8.55053134768	0.0	0.000000	0.000000	0.000000
365	1	24.9483851756	7.61368972017	0.0	0.000000	0.000000	0.000000
366	1	25.5297120524	8.54942366096	0.0	0.000000	0.000000	0.000000
367	1	26.0952544968	7.61295527336	0.0	0.000000	0.000000	0.000000
368	1	26.6790428105	8.54893811549	0.0	0.000000	0.000000	0.000000
369	1	27.2410744107	7.61313784725	0.0	0.000000	0.000000	0.000000
370	1	27.825683764	8.55116335226	0.0	0.000000	0.000000	0.000000
371	1	28.384310008	7.61586092152	0.0	0.000000	0.000000	0.000000
372	1	28.9657465777	8.55973976592	0.0	0.000000	0.000000	0.000000
373	1	29.5227071117	7.62307138896	0.0	0.000000	0.000000	0.000000
374	1	30.0997854082	8.57310212689	0.0	0.000000	0.000000	0.000000
375	1	30.6564946252	7.63371797916	0.0	0.000000	0.000000	0.000000
376	1	31.2298426984	8.5882432121	0.0	0.000000	0.000000	0.000000
377	1	31.7870072852	7.64571563495	0.0	0.000000	0.000000	0.000000
378	1	32.3576115231	8.60300433062	0.0	0.000000	0.000000	0.000000
379	1	32.9154825023	7.65746280374	0.0	0.000000	0.000000	0.000000
380	1	33.4841512346	8.61632466592	0.0	0.000000	0.000000	0.000000
381	1	34.0427706781	7.66810328488	0.0	0.000000	0.000000	0.000000
382	1	34.6100818195	8.6278231571	0.0	0.000000	0.000000	0.000000
383	1	35.1694097706	7.67729878277	0.0	0.000000	0.000000	0.000000
384	1	35.7357633574	8.63746637571	0.0	0.000000	0.000000	0.000000
385	1	36.2957345626	7.68500002202	0.0	0.000000	0.000000	0.000000
386	1	36.8614051635	8.64538173213	0.0	0.000000	0.000000	0.000000
387	1	37.4219527843	7.69129977321	0.0	0.000000	0.000000	0.000000
388	1	37.9871266423	8.65175989582	0.0	0.000000	0.000000	0.000000
389	1	38.5481907233	7.69634885692	0.0	0.000000	0.000000	0.000000
390	1	39.1129908037	8.65680429642	0.0	0.000000	0.000000	0.000000
391	1	39.6745198308	7.70031040484	0.0	0.000000	0.000000	0.000000
392	1	40.2390231424	8.66070521404	0.0	0.000000	0.000000	0.000000
393	1	40.8009728482	7.70333609989	0.0	0.000000	0.000000	0.000000
394	1	41.3652228977	8.66362703579	0.0	0.000000	0.000000	0.000000
395	1	41.9275544146	7.70555474826	0.0	0.000000	0.000000	0.000000
396	1	42.4915704182	8.66570263835	0.0	0.000000	0.000000	0.000000
397	1	43.0542487691	7.70706751664	0.0	0.000000	0.000000	0.000000
398	1	43.618032545	8.6670314976	0.0	0.000000	0.000000	0.000000
399	1	44.1810258583	7.70794650613	0.0	0.000000	0.000000	0.000000
400	1	44.7445669737	8.66767953464	0.0	0.000000	0.000000	0.000000
401	1	3e-17	9.62755038749	0.0	0.000000	0.000000	0.000000
402	1	0.56329414387	10.587418253	0.0	0.000000	0.000000	0.000000
403	1	1.12647615224	9.62719998373	0.0	0.000000	0.000000	0.000000
404	1	1.6898533171	10.5866668551	0.0	0.000000	0.000000	0.000000
405	1	2.25289830053	9.6261306893	0.0	0.000000	0.000000	0.000000
406	1	2.8163256783	10.5851251957	0.0	0.000000	0.000000	0.000000
407	1	3.37921480004	9.62428803672	0.0	0.000000	0.000000	0.000000
408	1	3.94265515028	10.5827150733	0.0	0.000000	0.000000	0.000000
409	1	4.50537883166	9.62158062765	0.0	0.000000	0.000000	0.000000
410	1	5.0687884788	10.5793181495	0.0	0.000000	0.000000	0.000000
411	1	5.63135114854	9.61787960193	0.0	0.000000	0.000000	0.000000
412	1	6.19467675613	10.5747751408	0.0	0.000000	0.000000	0.000000
413	1	6.75710343718	9.61301876963	0.0	0.000000	0.000000	0.000000
414	1	7.32027771415	10.5688855246	0.0	0.000000	0.000000	0.000000
415	1	7.88262296078	9.60679649223	0.0	0.000000	0.000000	0.000000
416	1	8.4455596658	10.5614085919	0.0	0.000000	0.000000	0.000000
417	1	9.00791978857	9.59898112156	0.0	0.000000	0.000000	0.000000
418	1	9.57050871269	10.5520672728	0.0	0.000000	0.000000	0.000000
419	1	10.1330390915	9.58932319654	0.0	0.000000	0.000000	0.000000
420	1	10.6951421278	10.5405575282	0.0	0.000000	0.000000	0.000000
421	1	11.2580831694	9.57758066525	0.0	0.000000	0.000000	0.000000
422	1	11.8195332674	10.526569598	0.0	0.000000	0.000000	0.000000
423	1	12.3832520984	9.56357061783	0.0	0.000000	0.000000	0.000000
424	1	12.9438585814	10.5098364538	0.0	0.000000	0.000000	0.000000
425	1	13.5089204737	9.54727792752	0.0	0.000000	0.000000	0.000000
426	1	14.0684895232	10.4902484321	0.0	0.000000	0.000000	0.000000
427	1	14.6357847015	9.52908759137	0.0	0.000000	0.000000	0.000000
428	1	15.1941816451	10.4681329506	0.0	0.000000	0.000000	0.000000
429	1	15.7651380258	9.51026096855	0.0	0.000000	0.000000	0.000000
430	1	16.3224746336	10.4449239521	0.0	0.000000	0.000000	0.000000
431	1	16.8992698678	9.49367760495	0.0	0.000000	0.000000	0.000000
432	1	17.4564250521	10.4244423133	0.0	0.000000	0.000000	0.000000
433	1	18.0412841054	9.48367425388	0.0	0.000000	0.000000	0.000000
434	1	18.6006866779	10.4129145123	0.0	0.000000	0.000000	0.000000
435	1	19.1924663166	9.48272653488	0.0	0.000000	0.000000	0.000000
436	1	19.7581417052	10.4144534012	0.0	0.000000	0.000000	0.000000
437	1	20.3459466311	9.48414457842	0.0	0.000000	0.000000	0.000000
438	1	20.9164863398	10.4169651447	0.0	0.000000	0.000000	0.000000
439	1	21.4999165239	9.48558871068	0.0	0.000000	0.000000	0.000000
440	1	22.0748001842	10.4185458372	0.0	0.000000	0.000000	0.000000
441	1	22.6539232646	9.48615359777	0.0	0.000000	0.000000	0.000000
442	1	23.233046345	10.4185458372	0.0	0.000000	0.000000	0.000000
443	1	23.8079300053	9.48558871068	0.0	0.000000	0.000000	0.000000
444	1	24.3913601894	10.4169651447	0.0	0.000000	0.000000	0.000000
445	1	24.9618998982	9.48414457842	0.0	0.000000	0.000000	0.000000
446	1	25.549704824	10.4144534012	0.0	0.000000	0.000000	0.000000
447	1	26.1153802126	9.48272653488	0.0	0.000000	0.000000	0.000000
448	1	26.7071598513	10.4129145123	0.0	0.000000	0.000000	0.000000
449	1	27.2665624239	9.48367425388	0.0	0.000000	0.000000	0.000000
450	1	27.8514214772	10.4244423133	0.0	0.000000	0.000000	0.000000
451	1	28.4085766614	9.49367760495	0.0	0.000000	0.000000	0.000000
452	1	28.9853718956	10.4449239521	0.0	0.000000	0.000000	0.000000
453	1	29.5427085035	9.51026096855	0.0	0.000000	0.000000	0.000000
454	1	30.1136648842	10.4681329506	0.0	0.000000	0.000000	0.000000
455	1	30.6720618278	9.52908759137	0.0	0.000000	0.000000	0.000000
456	1	31.2393570061	10.4902484321	0.0	0.000000	0.000000	0.000000
457	1	31.7989260556	9.54727792752	0.0	0.000000	0.000000	0.000000
458	1	32.3639879479	10.5098364538	0.0	0.000000	0.000000	0.000000
459	1	32.9245944309	9.56357061783	0.0	0.000000	0.000000	0.000000