LAMMPS data file from restart file: timestep = 7, procs = 1

840 atoms

2 atom types

0.0000000000000000e+00 4.5307846529256608e+01 xlo xhi
-1000 10000 ylo yhi
-2.8317404080785380e-01 2.8317404080785380e-01 zlo zhi

Masses

1 1
2 1

Pair Coeffs

1 1 1
2 1 1

Atoms

1	2	0.0	0.0	0.0	0.000000	0.000000	0.000000
2	2	0.566348081616	0.980943652128	0.0	0.000000	0.000000	0.000000
3	2	1.13269616323	0.0	0.0	0.000000	0.000000	0.000000
4	2	1.69904424485	0.980943652128	0.0	0.000000	0.000000	0.000000
5	2	2.26539232646	0.0	0.0	0.000000	0.000000	0.000000
6	2	2.83174040808	0.980943652128	0.0	0.000000	0.000000	0.000000
7	2	3.39808848969	0.0	0.0	0.000000	0.000000	0.000000
8	2	3.96443657131	0.980943652128	0.0	0.000000	0.000000	0.000000
9	2	4.53078465293	0.0	0.0	0.000000	0.000000	0.000000
10	2	5.09713273454	0.980943652128	0.0	0.000000	0.000000	0.000000
11	2	5.66348081616	0.0	0.0	0.000000	0.000000	0.000000
12	2	6.22982889777	0.980943652128	0.0	0.000000	0.000000	0.000000
13	2	6.79617697939	0.0	0.0	0.000000	0.000000	0.000000
14	2	7.362525061	0.980943652128	0.0	0.000000	0.000000	0.000000
15	2	7.92887314262	0.0	0.0	0.000000	0.000000	0.000000
16	2	8.49522122424	0.980943652128	0.0	0.000000	0.000000	0.000000
17	2	9.06156930585	0.0	0.0	0.000000	0.000000	0.000000
18	2	9.62791738747	0.980943652128	0.0	0.000000	0.000000	0.000000
19	2	10.1942654691	0.0	0.0	0.000000	0.000000	0.000000
20	2	10.7606135507	0.980943652128	0.0	0.000000	0.000000	0.000000
21	2	11.3269616323	0.0	0.0	0.000000	0.000000	0.000000
22	2	11.8933097139	0.980943652128	0.0	0.000000	0.000000	0.000000
23	2	12.4596577955	0.0	0.0	0.000000	0.000000	0.000000
24	2	13.0260058772	0.980943652128	0.0	0.000000	0.000000	0.000000
25	2	13.5923539588	0.0	0.0	0.000000	0.000000	0.000000
26	2	14.1587020404	0.980943652128	0.0	0.000000	0.000000	0.000000
27	2	14.725050122	0.0	0.0	0.000000	0.000000	0.000000
28	2	15.2913982036	0.980943652128	0.0	0.000000	0.000000	0.000000
29	2	15.8577462852	0.0	0.0	0.000000	0.000000	0.000000
30	2	16.4240943669	0.980943652128	0.0	0.000000	0.000000	0.000000
31	2	16.9904424485	0.0	0.0	0.000000	0.000000	0.000000
32	2	17.5567905301	0.980943652128	0.0	0.000000	0.000000	0.000000
33	2	18.1231386117	0.0	0.0	0.000000	0.000000	0.000000
34	2	18.6894866933	0.980943652128	0.0	0.000000	0.000000	0.000000
35	2	19.2558347749	0.0	0.0	0.000000	0.000000	0.000000
36	2	19.8221828565	0.980943652128	0.0	0.000000	0.000000	0.000000
37	2	20.3885309382	0.0	0.0	0.000000	0.000000	0.000000
38	2	20.9548790198	0.980943652128	0.0	0.000000	0.000000	0.000000
39	2	21.5212271014	0.0	0.0	0.000000	0.000000	0.000000
40	2	22.087575183	0.980943652128	0.0	0.000000	0.000000	0.000000
41	2	22.6539232646	0.0	0.0	0.000000	0.000000	0.000000
42	2	23.2202713462	0.980943652128	0.0	0.000000	0.000000	0.000000
43	2	23.7866194279	0.0	0.0	0.000000	0.000000	0.000000
44	2	24.3529675095	0.980943652128	0.0	0.000000	0.000000	0.000000
45	2	24.9193155911	0.0	0.0	0.000000	0.000000	0.000000
46	2	25.4856636727	0.980943652128	0.0	0.000000	0.000000	0.000000
47	2	26.0520117543	0.0	0.0	0.000000	0.000000	0.000000
48	2	26.6183598359	0.980943652128	0.0	0.000000	0.000000	0.000000
49	2	27.1847079176	0.0	0.0	0.000000	0.000000	0.000000
50	2	27.7510559992	0.980943652128	0.0	0.000000	0.000000	0.000000
51	2	28.3174040808	0.0	0.0	0.000000	0.000000	0.000000
52	2	28.8837521624	0.980943652128	0.0	0.000000	0.000000	0.000000
53	2	29.450100244	0.0	0.0	0.000000	0.000000	0.000000
54	2	30.0164483256	0.980943652128	0.0	0.000000	0.000000	0.000000
55	2	30.5827964072	0.0	0.0	0.000000	0.000000	0.000000
56	2	31.1491444889	0.980943652128	0.0	0.000000	0.000000	0.000000
57	2	31.7154925705	0.0	0.0	0.000000	0.000000	0.000000
58	2	32.2818406521	0.980943652128	0.0	0.000000	0.000000	0.000000
59	2	32.8481887337	0.0	0.0	0.000000	0.000000	0.000000
60	2	33.4145368153	0.980943652128	0.0	0.000000	0.000000	0.000000
61	2	33.9808848969	0.0	0.0	0.000000	0.000000	0.000000
62	2	34.5472329786	0.980943652128	0.0	0.000000	0.000000	0.000000
63	2	35.1135810602	0.0	0.0	0.000000	0.000000	0.000000
64	2	35.6799291418	0.980943652128	0.0	0.000000	0.000000	0.000000
65	2	36.2462772234	0.0	0.0	0.000000	0.000000	0.000000
66	2	36.812625305	0.980943652128	0.0	0.000000	0.000000	0.000000
67	2	37.3789733866	0.0	0.0	0.000000	0.000000	0.000000
68	2	37.9453214683	0.980943652128	0.0	0.000000	0.000000	0.000000
69	2	38.5116695499	0.0	0.0	0.000000	0.000000	0.000000
70	2	39.0780176315	0.980943652128	0.0	0.000000	0.000000	0.000000
71	2	39.6443657131	0.0	0.0	0.000000	0.000000	0.000000
72	2	40.2107137947	0.980943652128	0.0	0.000000	0.000000	0.000000
73	2	40.7770618763	0.0	0.0	0.000000	0.000000	0.000000
74	2	41.3434099579	0.980943652128	0.0	0.000000	0.000000	0.000000
75	2	41.9097580396	0.0	0.0	0.000000	0.000000	0.000000
76	2	42.4761061212	0.980943652128	0.0	0.000000	0.000000	0.000000
77	2	43.0424542028	0.0	0.0	0.000000	0.000000	0.000000
78	2	43.6088022844	0.980943652128	0.0	0.000000	0.000000	0.000000
79	2	44.175150366	0.0	0.0	0.000000	0.000000	0.000000
80	2	44.7414984476	0.980943652128	0.0	0.000000	0.000000	0.000000
81	2	0.0	1.96188730426	0.0	0.000000	0.000000	0.000000
82	1	0.565601164991	2.91803613154	0.0	0.000000	0.000000	0.000000
83	2	1.13269616323	1.96188730426	0.0	0.000000	0.000000	0.000000
84	1	1.69679607696	2.9179193962	0.0	0.000000	0.000000	0.000000
85	2	2.26539232646	1.96188730426	0.0	0.000000	0.000000	0.000000
86	1	2.82797479632	2.91768773607	0.0	0.000000	0.000000	0.000000
87	2	3.39808848969	1.96188730426	0.0	0.000000	0.000000	0.000000
88	1	3.95912496796	2.91733261521	0.0	0.000000	0.000000	0.000000
89	2	4.53078465293	1.96188730426	0.0	0.000000	0.000000	0.000000
90	1	5.09024658726	2.91684230831	0.0	0.000000	0.000000	0.000000
91	2	5.66348081616	1.96188730426	0.0	0.000000	0.000000	0.000000
92	1	6.22134857047	2.91620684041	0.0	0.000000	0.000000	0.000000
93	2	6.79617697939	1.96188730426	0.0	0.000000	0.000000	0.000000
94	1	7.35245165283	2.91540992503	0.0	0.000000	0.000000	0.000000
95	2	7.92887314262	1.96188730426	0.0	0.000000	0.000000	0.000000
96	1	8.48360209217	2.91444630654	0.0	0.000000	0.000000	0.000000
97	2	9.06156930585	1.96188730426	0.0	0.000000	0.000000	0.000000
98	1	9.61487914603	2.91331757166	0.0	0.000000	0.000000	0.000000
99	2	10.1942654691	1.96188730426	0.0	0.000000	0.000000	0.000000
100	1	10.7463965463	2.91205803567	0.0	0.000000	0.000000	0.000000
101	2	11.3269616323	1.96188730426	0.0	0.000000	0.000000	0.000000
102	1	11.8783113158	2.91073995097	0.0	0.000000	0.000000	0.000000
103	2	12.4596577955	1.96188730426	0.0	0.000000	0.000000	0.000000
104	1	13.0107948636	2.90949000841	0.0	0.000000	0.000000	0.000000
105	2	13.5923539588	1.96188730426	0.0	0.000000	0.000000	0.000000
106	1	14.1439698616	2.9084796572	0.0	0.000000	0.000000	0.000000
107	2	14.725050122	1.96188730426	0.0	0.000000	0.000000	0.000000
108	1	15.2778400807	2.90782748816	0.0	0.000000	0.000000	0.000000
109	2	15.8577462852	1.96188730426	0.0	0.000000	0.000000	0.000000
110	1	16.4122439382	2.9075217704	0.0	0.000000	0.000000	0.000000
111	2	16.9904424485	1.96188730426	0.0	0.000000	0.000000	0.000000
112	1	17.546963357	2.9074588593	0.0	0.000000	0.000000	0.000000
113	2	18.1231386117	1.96188730426	0.0	0.000000	0.000000	0.000000
114	1	18.681828289	2.90753084825	0.0	0.000000	0.000000	0.000000
115	2	19.2558347749	1.96188730426	0.0	0.000000	0.000000	0.000000
116	1	19.8167268259	2.90764686241	0.0	0.000000	0.000000	0.000000
117	2	20.3885309382	1.96188730426	0.0	0.000000	0.000000	0.000000
118	1	20.9516210109	2.9077521145	0.0	0.000000	0.000000	0.000000
119	2	21.5212271014	1.96188730426	0.0	0.000000	0.000000	0.000000
120	1	22.0864917138	2.9078111141	0.0	0.000000	0.000000	0.000000
121	2	22.6539232646	1.96188730426	0.0	0.000000	0.000000	0.000000
122	1	23.221357896	2.90781041798	0.0	0.000000	0.000000	0.000000
123	2	23.7866194279	1.96188730426	0.0	0.000000	0.000000	0.000000
124	1	24.3562317245	2.90775169449	0.0	0.000000	0.000000	0.000000
125	2	24.9193155911	1.96188730426	0.0	0.000000	0.000000	0.000000
126	1	25.4911233974	2.90764610222	0.0	0.000000	0.000000	0.000000
127	2	26.0520117543	1.96188730426	0.0	0.000000	0.000000	0.000000
128	1	26.6260240141	2.90752869993	0.0	0.000000	0.000000	0.000000
129	2	27.1847079176	1.96188730426	0.0	0.000000	0.000000	0.000000
130	1	27.7608860523	2.9074587655	0.0	0.000000	0.000000	0.000000
131	2	28.3174040808	1.96188730426	0.0	0.000000	0.000000	0.000000
132	1	28.8956076894	2.90752198973	0.0	0.000000	0.000000	0.000000
133	2	29.450100244	1.96188730426	0.0	0.000000	0.000000	0.000000
134	1	30.0300086952	2.9078274347	0.0	0.000000	0.000000	0.000000
135	2	30.5827964072	1.96188730426	0.0	0.000000	0.000000	0.000000
136	1	31.1638788091	2.90848235912	0.0	0.000000	0.000000	0.000000
137	2	31.7154925705	1.96188730426	0.0	0.000000	0.000000	0.000000
138	1	32.2970553283	2.90948992358	0.0	0.000000	0.000000	0.000000
139	2	32.8481887337	1.96188730426	0.0	0.000000	0.000000	0.000000
140	1	33.4295374434	2.91074011931	0.0	0.000000	0.000000	0.000000
141	2	33.9808848969	1.96188730426	0.0	0.000000	0.000000	0.000000
142	1	34.5614531597	2.91205785153	0.0	0.000000	0.000000	0.000000
143	2	35.1135810602	1.96188730426	0.0	0.000000	0.000000	0.000000
144	1	35.6929696398	2.91331954328	0.0	0.000000	0.000000	0.000000
145	2	36.2462772234	1.96188730426	0.0	0.000000	0.000000	0.000000
146	1	36.8242466291	2.91444581597	0.0	0.000000	0.000000	0.000000
147	2	37.3789733866	1.96188730426	0.0	0.000000	0.000000	0.000000
148	1	37.9553992507	2.91540881463	0.0	0.000000	0.000000	0.000000
149	2	38.5116695499	1.96188730426	0.0	0.000000	0.000000	0.000000
150	1	39.0865017873	2.91620572807	0.0	0.000000	0.000000	0.000000
151	2	39.6443657131	1.96188730426	0.0	0.000000	0.000000	0.000000
152	1	40.2176028953	2.91684306566	0.0	0.000000	0.000000	0.000000
153	2	40.7770618763	1.96188730426	0.0	0.000000	0.000000	0.000000
154	1	41.3487247253	2.91733337815	0.0	0.000000	0.000000	0.000000
155	2	41.9097580396	1.96188730426	0.0	0.000000	0.000000	0.000000
156	1	42.479876609	2.9176903964	0.0	0.000000	0.000000	0.000000
157	2	43.0424542028	1.96188730426	0.0	0.000000	0.000000	0.000000
158	1	43.6110536073	2.91791995368	0.0	0.000000	0.000000	0.000000
159	2	44.175150366	1.96188730426	0.0	0.000000	0.000000	0.000000
160	1	44.742247417	2.9180348895	0.0	0.000000	0.000000	0.000000
161	1	2.67136270596e-06	3.87476507923	0.0	0.000000	0.000000	0.000000
162	1	0.5644195851	4.83219933731	0.0	0.000000	0.000000	0.000000
163	1	1.12991620898	3.87465471319	0.0	0.000000	0.000000	0.000000
164	1	1.69324038053	4.83187778909	0.0	0.000000	0.000000	0.000000
165	1	2.25980659288	3.8743226116	0.0	0.000000	0.000000	0.000000
166	1	2.82201899108	4.83122046093	0.0	0.000000	0.000000	0.000000
167	1	3.38966053234	3.87374877483	0.0	0.000000	0.000000	0.000000
168	1	3.95073909879	4.83020220482	0.0	0.000000	0.000000	0.000000
169	1	4.5194633933	3.87292344641	0.0	0.000000	0.000000	0.000000
170	1	5.07939609834	4.82877916326	0.0	0.000000	0.000000	0.000000
171	1	5.64922451833	3.87181025634	0.0	0.000000	0.000000	0.000000
172	1	6.20800345837	4.82690714574	0.0	0.000000	0.000000	0.000000
173	1	6.77896516197	3.87038146319	0.0	0.000000	0.000000	0.000000
174	1	7.33660405798	4.82452142579	0.0	0.000000	0.000000	0.000000
175	1	7.90873961056	3.86860584779	0.0	0.000000	0.000000	0.000000
176	1	8.46528136054	4.82156189364	0.0	0.000000	0.000000	0.000000
177	1	9.03864388728	3.8664555366	0.0	0.000000	0.000000	0.000000
178	1	9.59418187258	4.81799523513	0.0	0.000000	0.000000	0.000000
179	1	10.1688336494	3.86394313415	0.0	0.000000	0.000000	0.000000
180	1	10.7235149972	4.81383200094	0.0	0.000000	0.000000	0.000000
181	1	11.2995201637	3.86113415071	0.0	0.000000	0.000000	0.000000
182	1	11.8535879793	4.80920071655	0.0	0.000000	0.000000	0.000000
183	1	12.4309927529	3.8582090636	0.0	0.000000	0.000000	0.000000
184	1	12.98479717	4.80441676046	0.0	0.000000	0.000000	0.000000
185	1	13.5635557057	3.85548166778	0.0	0.000000	0.000000	0.000000
186	1	14.1175971806	4.80002148559	0.0	0.000000	0.000000	0.000000
187	1	14.6974390162	3.85333159073	0.0	0.000000	0.000000	0.000000
188	1	15.2523522505	4.79666593546	0.0	0.000000	0.000000	0.000000
189	1	15.8326350056	3.85200979735	0.0	0.000000	0.000000	0.000000
190	1	16.38905547	4.7947343511	0.0	0.000000	0.000000	0.000000
191	1	16.968817597	3.85144317222	0.0	0.000000	0.000000	0.000000
192	1	17.5271799596	4.7940110685	0.0	0.000000	0.000000	0.000000
193	1	18.1055794455	3.85138044974	0.0	0.000000	0.000000	0.000000
194	1	18.666113783	4.79401636592	0.0	0.000000	0.000000	0.000000
195	1	19.2426086293	3.85156145423	0.0	0.000000	0.000000	0.000000
196	1	19.8054022537	4.79433361688	0.0	0.000000	0.000000	0.000000
197	1	20.3797187824	3.85179801456	0.0	0.000000	0.000000	0.000000
198	1	20.9448043714	4.79467542486	0.0	0.000000	0.000000	0.000000
199	1	21.5168292202	3.85198067903	0.0	0.000000	0.000000	0.000000
200	1	22.0842180982	4.79488070815	0.0	0.000000	0.000000	0.000000
201	1	22.6539242622	3.85204646896	0.0	0.000000	0.000000	0.000000
202	1	23.2236308844	4.79488070262	0.0	0.000000	0.000000	0.000000
203	1	23.7910210246	3.85198173538	0.0	0.000000	0.000000	0.000000
204	1	24.36304482	4.79467546982	0.0	0.000000	0.000000	0.000000
205	1	24.9281301141	3.85179821152	0.0	0.000000	0.000000	0.000000
206	1	25.5024486015	4.79433236004	0.0	0.000000	0.000000	0.000000
207	1	26.0652387136	3.8515603632	0.0	0.000000	0.000000	0.000000
208	1	26.6417387289	4.79401732221	0.0	0.000000	0.000000	0.000000
209	1	27.2022705735	3.85137849724	0.0	0.000000	0.000000	0.000000
210	1	27.780669579	4.79400818181	0.0	0.000000	0.000000	0.000000
211	1	28.3390341657	3.85144344136	0.0	0.000000	0.000000	0.000000
212	1	28.9187961978	4.79473734407	0.0	0.000000	0.000000	0.000000
213	1	29.4752140846	3.85200919923	0.0	0.000000	0.000000	0.000000
214	1	30.0554963929	4.7966680756	0.0	0.000000	0.000000	0.000000
215	1	30.6104102709	3.85332940397	0.0	0.000000	0.000000	0.000000
216	1	31.1902503339	4.80002153113	0.0	0.000000	0.000000	0.000000
217	1	31.7442956551	3.85548130825	0.0	0.000000	0.000000	0.000000
218	1	32.3230507851	4.80441736313	0.0	0.000000	0.000000	0.000000
219	1	32.8768571667	3.85821088351	0.0	0.000000	0.000000	0.000000
220	1	33.4542601494	4.80920143095	0.0	0.000000	0.000000	0.000000
221	1	34.0083310142	3.8611349625	0.0	0.000000	0.000000	0.000000
222	1	34.5843337426	4.81383012596	0.0	0.000000	0.000000	0.000000
223	1	35.1390180175	3.86394431595	0.0	0.000000	0.000000	0.000000
224	1	35.7136672325	4.81799512212	0.0	0.000000	0.000000	0.000000
225	1	36.2692064551	3.86645857958	0.0	0.000000	0.000000	0.000000
226	1	36.8425659574	4.8215644557	0.0	0.000000	0.000000	0.000000
227	1	37.3991095618	3.86860702368	0.0	0.000000	0.000000	0.000000
228	1	37.9712458564	4.8245223986	0.0	0.000000	0.000000	0.000000
229	1	38.5288865517	3.87038307409	0.0	0.000000	0.000000	0.000000
230	1	39.0998481111	4.82690849371	0.0	0.000000	0.000000	0.000000
231	1	39.6586272838	3.87180928777	0.0	0.000000	0.000000	0.000000
232	1	40.2284521697	4.82878067987	0.0	0.000000	0.000000	0.000000
233	1	40.7883882186	3.87292247172	0.0	0.000000	0.000000	0.000000
234	1	41.357109353	4.83019991217	0.0	0.000000	0.000000	0.000000
235	1	41.9181906456	3.87374933594	0.0	0.000000	0.000000	0.000000
236	1	42.4858302858	4.83121970339	0.0	0.000000	0.000000	0.000000
237	1	43.0480428091	3.87431994597	0.0	0.000000	0.000000	0.000000
238	1	43.6146110834	4.83187691409	0.0	0.000000	0.000000	0.000000
239	1	44.1779344964	3.87465673659	0.0	0.000000	0.000000	0.000000
240	1	44.743431815	4.83220025184	0.0	0.000000	0.000000	0.000000
241	1	2.0401442372e-06	5.79037441972	0.0	0.000000	0.000000	0.000000
242	1	0.563647262095	6.74901353129	0.0	0.000000	0.000000	0.000000
243	1	1.12795630297	5.79016789848	0.0	0.000000	0.000000	0.000000
244	1	1.69091793192	6.74850976352	0.0	0.000000	0.000000	0.000000
245	1	2.25588057215	5.78953779148	0.0	0.000000	0.000000	0.000000
246	1	2.81813603251	6.74748040576	0.0	0.000000	0.000000	0.000000
247	1	3.38374180432	5.78845793202	0.0	0.000000	0.000000	0.000000
248	1	3.94526622785	6.74587964439	0.0	0.000000	0.000000	0.000000
249	1	4.51152248149	5.78688232041	0.0	0.000000	0.000000	0.000000
250	1	5.0722988934	6.7436301716	0.0	0.000000	0.000000	0.000000
251	1	5.63922694404	5.78474049895	0.0	0.000000	0.000000	0.000000
252	1	6.19923268858	6.74064269043	0.0	0.000000	0.000000	0.000000
253	1	6.76687932132	5.78195476878	0.0	0.000000	0.000000	0.000000
254	1	7.32610379314	6.73679521512	0.0	0.000000	0.000000	0.000000
255	1	7.89453744063	5.77843218547	0.0	0.000000	0.000000	0.000000
256	1	8.45297982741	6.73196454965	0.0	0.000000	0.000000	0.000000
257	1	9.02230964789	5.77408806424	0.0	0.000000	0.000000	0.000000
258	1	9.57998774834	6.72603535505	0.0	0.000000	0.000000	0.000000
259	1	10.1503785041	5.7688657775	0.0	0.000000	0.000000	0.000000
260	1	10.7073219924	6.7189345031	0.0	0.000000	0.000000	0.000000
261	1	11.2789987475	5.76279549794	0.0	0.000000	0.000000	0.000000
262	1	11.8352859266	6.71070674625	0.0	0.000000	0.000000	0.000000
263	1	12.4085553076	5.75607699646	0.0	0.000000	0.000000	0.000000
264	1	12.9643352127	6.70162216696	0.0	0.000000	0.000000	0.000000
265	1	13.5395719109	5.74918599027	0.0	0.000000	0.000000	0.000000
266	1	14.0951429776	6.69234517646	0.0	0.000000	0.000000	0.000000
267	1	14.6726848151	5.74294299627	0.0	0.000000	0.000000	0.000000
268	1	15.228601024	6.68404134342	0.0	0.000000	0.000000	0.000000
269	1	15.808467321	5.73833965659	0.0	0.000000	0.000000	0.000000
270	1	16.365584396	6.67815260656	0.0	0.000000	0.000000	0.000000
271	1	16.9469303239	5.73591163081	0.0	0.000000	0.000000	0.000000
272	1	17.506176304	6.67542434089	0.0	0.000000	0.000000	0.000000
273	1	18.0872492319	5.73516518262	0.0	0.000000	0.000000	0.000000
274	1	18.649025924	6.67484195398	0.0	0.000000	0.000000	0.000000
275	1	19.228545649	5.73532759523	0.0	0.000000	0.000000	0.000000
276	1	19.7929488246	6.6752504434	0.0	0.000000	0.000000	0.000000
277	1	20.3702494117	5.73579569134	0.0	0.000000	0.000000	0.000000
278	1	20.9372703064	6.6758666066	0.0	0.000000	0.000000	0.000000
279	1	21.5120776995	5.73620212373	0.0	0.000000	0.000000	0.000000
280	1	22.0817034061	6.67626738968	0.0	0.000000	0.000000	0.000000
281	1	22.6539253726	5.73635531458	0.0	0.000000	0.000000	0.000000
282	1	23.2261481041	6.67626807362	0.0	0.000000	0.000000	0.000000
283	1	23.795771793	5.73620152791	0.0	0.000000	0.000000	0.000000
284	1	24.3705801338	6.67586674058	0.0	0.000000	0.000000	0.000000
285	1	24.9375991131	5.73579519871	0.0	0.000000	0.000000	0.000000
286	1	25.5149035405	6.67525000692	0.0	0.000000	0.000000	0.000000
287	1	26.079304651	5.73532703282	0.0	0.000000	0.000000	0.000000
288	1	26.6588248051	6.67484195732	0.0	0.000000	0.000000	0.000000
289	1	27.2206003539	5.73516593504	0.0	0.000000	0.000000	0.000000
290	1	27.8016744835	6.67542466048	0.0	0.000000	0.000000	0.000000
291	1	28.36092034	5.73591213196	0.0	0.000000	0.000000	0.000000
292	1	28.9422637648	6.67815107979	0.0	0.000000	0.000000	0.000000
293	1	29.4993849796	5.73833948334	0.0	0.000000	0.000000	0.000000
294	1	30.0792470686	6.68404051504	0.0	0.000000	0.000000	0.000000
295	1	30.6351620523	5.7429412052	0.0	0.000000	0.000000	0.000000
296	1	31.2127095627	6.69234626732	0.0	0.000000	0.000000	0.000000
297	1	31.7682792973	5.74918579449	0.0	0.000000	0.000000	0.000000
298	1	32.3435156688	6.70162227176	0.0	0.000000	0.000000	0.000000
299	1	32.8992939749	5.7560781843	0.0	0.000000	0.000000	0.000000
300	1	33.4725634158	6.71070604747	0.0	0.000000	0.000000	0.000000
301	1	34.0288527326	5.76279679496	0.0	0.000000	0.000000	0.000000
302	1	34.6005266374	6.7189330552	0.0	0.000000	0.000000	0.000000
303	1	35.1574719137	5.76886901319	0.0	0.000000	0.000000	0.000000
304	1	35.7278598024	6.7260356302	0.0	0.000000	0.000000	0.000000
305	1	36.2855403781	5.77408826401	0.0	0.000000	0.000000	0.000000
306	1	36.8548703346	6.73196495898	0.0	0.000000	0.000000	0.000000
307	1	37.4133129501	5.77843405668	0.0	0.000000	0.000000	0.000000
308	1	37.9817483643	6.73679330599	0.0	0.000000	0.000000	0.000000
309	1	38.5409706973	5.78195363902	0.0	0.000000	0.000000	0.000000
310	1	39.1086189524	6.74064125112	0.0	0.000000	0.000000	0.000000
311	1	39.6686212366	5.78474048298	0.0	0.000000	0.000000	0.000000
312	1	40.2355537489	6.74363283036	0.0	0.000000	0.000000	0.000000
313	1	40.7963259388	5.78687940114	0.0	0.000000	0.000000	0.000000
314	1	41.3625849849	6.74588040078	0.0	0.000000	0.000000	0.000000
315	1	41.9241090505	5.78845863621	0.0	0.000000	0.000000	0.000000
316	1	42.4897138636	6.74748155929	0.0	0.000000	0.000000	0.000000
317	1	43.0519699012	5.78954111449	0.0	0.000000	0.000000	0.000000
318	1	43.6169316741	6.74850996658	0.0	0.000000	0.000000	0.000000
319	1	44.1798910736	5.79017084528	0.0	0.000000	0.000000	0.000000
320	1	44.7442025381	6.74901281894	0.0	0.000000	0.000000	0.000000
321	1	1.82872830674e-06	7.70823711374	0.0	0.000000	0.000000	0.000000
322	1	0.56328118177	8.66768265623	0.0	0.000000	0.000000	0.000000
323	1	1.12682228535	7.70794670908	0.0	0.000000	0.000000	0.000000
324	1	1.68981593729	8.66703427087	0.0	0.000000	0.000000	0.000000
325	1	2.25359900095	7.70706955423	0.0	0.000000	0.000000	0.000000
326	1	2.81627618494	8.66570542566	0.0	0.000000	0.000000	0.000000
327	1	3.38029439091	7.70555539176	0.0	0.000000	0.000000	0.000000
328	1	3.94262576551	8.66362746762	0.0	0.000000	0.000000	0.000000
329	1	4.50687445693	7.70333857315	0.0	0.000000	0.000000	0.000000
330	1	5.06882404187	8.66070610253	0.0	0.000000	0.000000	0.000000
331	1	5.63332841594	7.70031042283	0.0	0.000000	0.000000	0.000000
332	1	6.19485847573	8.65680468529	0.0	0.000000	0.000000	0.000000
333	1	6.75965660309	7.69635108642	0.0	0.000000	0.000000	0.000000
334	1	7.32072040545	8.65176294328	0.0	0.000000	0.000000	0.000000
335	1	7.8858954595	7.69130101531	0.0	0.000000	0.000000	0.000000
336	1	8.44644342154	8.64538465206	0.0	0.000000	0.000000	0.000000
337	1	9.01211273721	7.68500128386	0.0	0.000000	0.000000	0.000000
338	1	9.57208499229	8.63746758341	0.0	0.000000	0.000000	0.000000
339	1	10.1384384802	7.67729894684	0.0	0.000000	0.000000	0.000000
340	1	10.6977679352	8.62782610343	0.0	0.000000	0.000000	0.000000
341	1	11.2650761157	7.66810370017	0.0	0.000000	0.000000	0.000000
342	1	11.8236981314	8.6163269374	0.0	0.000000	0.000000	0.000000
343	1	12.3923667002	7.65746351952	0.0	0.000000	0.000000	0.000000
344	1	12.9502359815	8.6030061587	0.0	0.000000	0.000000	0.000000
345	1	13.5208414206	7.6457158079	0.0	0.000000	0.000000	0.000000
346	1	14.0780051486	8.58824473581	0.0	0.000000	0.000000	0.000000
347	1	14.6513523283	7.63371884575	0.0	0.000000	0.000000	0.000000
348	1	15.208062086	8.57310449108	0.0	0.000000	0.000000	0.000000
349	1	15.7851410072	7.62307358514	0.0	0.000000	0.000000	0.000000
350	1	16.3421010695	8.55974058234	0.0	0.000000	0.000000	0.000000
351	1	16.9235371072	7.61586275428	0.0	0.000000	0.000000	0.000000
352	1	17.4821633756	8.55116483659	0.0	0.000000	0.000000	0.000000
353	1	18.0667723774	7.61313866084	0.0	0.000000	0.000000	0.000000
354	1	18.62880427	8.54894024622	0.0	0.000000	0.000000	0.000000
355	1	19.2125922955	7.61295778534	0.0	0.000000	0.000000	0.000000
356	1	19.7781360785	8.54942640112	0.0	0.000000	0.000000	0.000000
357	1	20.3594614665	7.61369071861	0.0	0.000000	0.000000	0.000000
358	1	20.9283315339	8.55053160261	0.0	0.000000	0.000000	0.000000
359	1	21.5066601132	7.61442062389	0.0	0.000000	0.000000	0.000000
360	1	22.0787202628	8.55128192564	0.0	0.000000	0.000000	0.000000
361	1	22.6539237534	7.61470991024	0.0	0.000000	0.000000	0.000000
362	1	23.2291283033	8.55128280315	0.0	0.000000	0.000000	0.000000
363	1	23.801189922	7.61442337877	0.0	0.000000	0.000000	0.000000
364	1	24.3795206965	8.55053155415	0.0	0.000000	0.000000	0.000000
365	1	24.9483879877	7.61369055846	0.0	0.000000	0.000000	0.000000
366	1	25.5297128164	8.54942415924	0.0	0.000000	0.000000	0.000000
367	1	26.0952565897	7.61295666376	0.0	0.000000	0.000000	0.000000
368	1	26.6790444344	8.54893856834	0.0	0.000000	0.000000	0.000000
369	1	27.2410760892	7.61313873228	0.0	0.000000	0.000000	0.000000
370	1	27.8256855842	8.55116468502	0.0	0.000000	0.000000	0.000000
371	1	28.3843108155	7.61586237965	0.0	0.000000	0.000000	0.000000
372	1	28.9657478679	8.55973992845	0.0	0.000000	0.000000	0.000000
373	1	29.5227074052	7.62307218367	0.0	0.000000	0.000000	0.000000
374	1	30.0997870702	8.57310515043	0.0	0.000000	0.000000	0.000000
375	1	30.656494998	7.63371877683	0.0	0.000000	0.000000	0.000000
376	1	31.2298439817	8.5882448179	0.0	0.000000	0.000000	0.000000
377	1	31.7870088331	7.6457175018	0.0	0.000000	0.000000	0.000000
378	1	32.3576126636	8.60300433271	0.0	0.000000	0.000000	0.000000
379	1	32.9154848911	7.65746411247	0.0	0.000000	0.000000	0.000000
380	1	33.4841541684	8.61632646524	0.0	0.000000	0.000000	0.000000
381	1	34.0427715895	7.66810412234	0.0	0.000000	0.000000	0.000000
382	1	34.6100850047	8.62782323449	0.0	0.000000	0.000000	0.000000
383	1	35.1694119099	7.67730107361	0.0	0.000000	0.000000	0.000000
384	1	35.7357637096	8.63746939701	0.0	0.000000	0.000000	0.000000
385	1	36.2957368489	7.68500185362	0.0	0.000000	0.000000	0.000000
386	1	36.8614065766	8.64538384669	0.0	0.000000	0.000000	0.000000
387	1	37.4219539769	7.69130000509	0.0	0.000000	0.000000	0.000000
388	1	37.987127409	8.65176168293	0.0	0.000000	0.000000	0.000000
389	1	38.5481926799	7.69635002934	0.0	0.000000	0.000000	0.000000
390	1	39.1129914751	8.65680728684	0.0	0.000000	0.000000	0.000000
391	1	39.674520913	7.70031300175	0.0	0.000000	0.000000	0.000000
392	1	40.2390264756	8.66070642879	0.0	0.000000	0.000000	0.000000
393	1	40.8009729005	7.70333873241	0.0	0.000000	0.000000	0.000000
394	1	41.3652229795	8.66362933958	0.0	0.000000	0.000000	0.000000
395	1	41.9275569702	7.70555711765	0.0	0.000000	0.000000	0.000000
396	1	42.4915722712	8.66570340728	0.0	0.000000	0.000000	0.000000
397	1	43.0542487862	7.70706999487	0.0	0.000000	0.000000	0.000000
398	1	43.6180337703	8.66703158616	0.0	0.000000	0.000000	0.000000
399	1	44.1810280481	7.70794813117	0.0	0.000000	0.000000	0.000000
400	1	44.7445679973	8.6676806495	0.0	0.000000	0.000000	0.000000
401	1	1.8072523164e-06	9.62755125537	0.0	0.000000	0.000000	0.000000
402	1	0.563295886407	10.5874211746	0.0	0.000000	0.000000	0.000000
403	1	1.12647870118	9.62720196082	0.0	0.000000	0.000000	0.000000
404	1	1.6898558262	10.5866696071	0.0	0.000000	0.000000	0.000000
405	1	2.2528988732	9.62613237682	0.0	0.000000	0.000000	0.000000
406	1	2.81632761982	10.585125865	0.0	0.000000	0.000000	0.000000
407	1	3.37921597203	9.62428813651	0.0	0.000000	0.000000	0.000000
408	1	3.94265844563	10.5827171209	0.0	0.000000	0.000000	0.000000
409	1	4.50537951337	9.62158176252	0.0	0.000000	0.000000	0.000000
410	1	5.06878994234	10.5793206892	0.0	0.000000	0.000000	0.000000
411	1	5.63135450219	9.61788162977	0.0	0.000000	0.000000	0.000000
412	1	6.19467792129	10.5747775555	0.0	0.000000	0.000000	0.000000
413	1	6.75710419651	9.61301929008	0.0	0.000000	0.000000	0.000000
414	1	7.32027823422	10.5688885226	0.0	0.000000	0.000000	0.000000
415	1	7.88262323773	9.60679960899	0.0	0.000000	0.000000	0.000000
416	1	8.44556136958	10.561411037	0.0	0.000000	0.000000	0.000000
417	1	9.00792234593	9.59898294474	0.0	0.000000	0.000000	0.000000
418	1	9.57050903021	10.5520675332	0.0	0.000000	0.000000	0.000000
419	1	10.1330413288	9.58932634812	0.0	0.000000	0.000000	0.000000
420	1	10.6951426661	10.5405579603	0.0	0.000000	0.000000	0.000000
421	1	11.2580857379	9.57758069442	0.0	0.000000	0.000000	0.000000
422	1	11.8195351563	10.5265727603	0.0	0.000000	0.000000	0.000000
423	1	12.3832527276	9.56357116655	0.0	0.000000	0.000000	0.000000
424	1	12.9438613197	10.5098366174	0.0	0.000000	0.000000	0.000000
425	1	13.5089218231	9.54728015975	0.0	0.000000	0.000000	0.000000
426	1	14.0684896789	10.490251004	0.0	0.000000	0.000000	0.000000
427	1	14.6357879416	9.52908920842	0.0	0.000000	0.000000	0.000000
428	1	15.1941849925	10.4681350278	0.0	0.000000	0.000000	0.000000
429	1	15.7651403464	9.51026162599	0.0	0.000000	0.000000	0.000000
430	1	16.3224754647	10.44492476	0.0	0.000000	0.000000	0.000000
431	1	16.8992701925	9.49368072083	0.0	0.000000	0.000000	0.000000
432	1	17.4564252014	10.4244454255	0.0	0.000000	0.000000	0.000000
433	1	18.0412864305	9.48367609275	0.0	0.000000	0.000000	0.000000
434	1	18.600688629	10.4129172489	0.0	0.000000	0.000000	0.000000
435	1	19.1924670344	9.48272964349	0.0	0.000000	0.000000	0.000000
436	1	19.7581435653	10.4144547197	0.0	0.000000	0.000000	0.000000
437	1	20.3459480623	9.48414612667	0.0	0.000000	0.000000	0.000000
438	1	20.9164886812	10.4169661314	0.0	0.000000	0.000000	0.000000
439	1	21.4999174642	9.48558975951	0.0	0.000000	0.000000	0.000000
440	1	22.0748018436	10.4185482932	0.0	0.000000	0.000000	0.000000
441	1	22.6539263152	9.4861558262	0.0	0.000000	0.000000	0.000000
442	1	23.2330486581	10.4185472175	0.0	0.000000	0.000000	0.000000
443	1	23.8079303644	9.4855921343	0.0	0.000000	0.000000	0.000000
444	1	24.3913622733	10.4169684073	0.0	0.000000	0.000000	0.000000
445	1	24.9619020135	9.48414752324	0.0	0.000000	0.000000	0.000000
446	1	25.5497074545	10.4144543202	0.0	0.000000	0.000000	0.000000
447	1	26.1153817662	9.48272819296	0.0	0.000000	0.000000	0.000000
448	1	26.7071603949	10.412916683	0.0	0.000000	0.000000	0.000000
449	1	27.2665641534	9.4836766385	0.0	0.000000	0.000000	0.000000
450	1	27.851424618	10.4244423806	0.0	0.000000	0.000000	0.000000
451	1	28.4085786336	9.49368084375	0.0	0.000000	0.000000	0.000000
452	1	28.9853751477	10.4449273074	0.0	0.000000	0.000000	0.000000
453	1	29.5427114703	9.51026136111	0.0	0.000000	0.000000	0.000000
454	1	30.1136679778	10.4681334922	0.0	0.000000	0.000000	0.000000
455	1	30.6720640323	9.52908775086	0.0	0.000000	0.000000	0.000000
456	1	31.2393597843	10.4902504507	0.0	0.000000	0.000000	0.000000
457	1	31.7989263684	9.54727903126	0.0	0.000000	0.000000	0.000000
458	1	32.3639912918	10.5098377	0.0	0.000000	0.000000	0.000000