LAMMPS data file from restart file: timestep = 7, procs = 1

840 atoms

2 atom types

0.0000000000000000e+00 4.5307846529256608e+01 xlo xhi
-1000 10000 ylo yhi
-2.8317404080785380e-01 2.8317404080785380e-01 zlo zhi

Masses

1 1
2 1

Pair Coeffs

1 1 1
2 1 1

Atoms

1 2 0.00000000000000000 0.00000000000000000 0.000000 0.000000 0.000000 0.000000
3 2 1.13269616323141520 0.00000000000000000 0.000000 0.000000 0.000000 0.000000
5 2 2.26539232646283040 0.00000000000000000 0.000000 0.000000 0.000000 0.000000
7 2 3.39808848969424560 0.00000000000000000 0.000000 0.000000 0.000000 0.000000
9 2 4.53078465292566079 0.00000000000000000 0.000000 0.000000 0.000000 0.000000
11 2 5.66348081615707599 0.00000000000000000 0.000000 0.000000 0.000000 0.000000
13 2 6.79617697938849119 0.00000000000000000 0.000000 0.000000 0.000000 0.000000
15 2 7.92887314261990639 0.00000000000000000 0.000000 0.000000 0.000000 0.000000
17 2 9.06156930585132159 0.00000000000000000 0.000000 0.000000 0.000000 0.000000
19 2 10.19426546908273679 0.00000000000000000 0.000000 0.000000 0.000000 0.000000
21 2 11.32696163231415198 0.00000000000000000 0.000000 0.000000 0.000000 0.000000
23 2 12.45965779554556718 0.00000000000000000 0.000000 0.000000 0.000000 0.000000
25 2 13.59235395877698238 0.00000000000000000 0.000000 0.000000 0.000000 0.000000
27 2 14.72505012200839758 0.00000000000000000 0.000000 0.000000 0.000000 0.000000
29 2 15.85774628523981278 0.00000000000000000 0.000000 0.000000 0.000000 0.000000
31 2 16.99044244847122798 0.00000000000000000 0.000000 0.000000 0.000000 0.000000
33 2 18.12313861170264317 0.00000000000000000 0.000000 0.000000 0.000000 0.000000
35 2 19.25583477493405837 0.00000000000000000 0.000000 0.000000 0.000000 0.000000
37 2 20.38853093816547357 0.00000000000000000 0.000000 0.000000 0.000000 0.000000
39 2 21.52122710139688877 0.00000000000000000 0.000000 0.000000 0.000000 0.000000
41 2 22.65392326462830397 0.00000000000000000 0.000000 0.000000 0.000000 0.000000
43 2 23.78661942785971917 0.00000000000000000 0.000000 0.000000 0.000000 0.000000
45 2 24.91931559109113437 0.00000000000000000 0.000000 0.000000 0.000000 0.000000
47 2 26.05201175432254956 0.00000000000000000 0.000000 0.000000 0.000000 0.000000
49 2 27.18470791755396476 0.00000000000000000 0.000000 0.000000 0.000000 0.000000
51 2 28.31740408078537996 0.00000000000000000 0.000000 0.000000 0.000000 0.000000
53 2 29.45010024401679516 0.00000000000000000 0.000000 0.000000 0.000000 0.000000
55 2 30.58279640724821036 0.00000000000000000 0.000000 0.000000 0.000000 0.000000
57 2 31.71549257047962556 0.00000000000000000 0.000000 0.000000 0.000000 0.000000
59 2 32.84818873371104075 0.00000000000000000 0.000000 0.000000 0.000000 0.000000
61 2 33.98088489694245595 0.00000000000000000 0.000000 0.000000 0.000000 0.000000
63 2 35.11358106017387115 0.00000000000000000 0.000000 0.000000 0.000000 0.000000
65 2 36.24627722340528635 0.00000000000000000 0.000000 0.000000 0.000000 0.000000
67 2 37.37897338663670155 0.00000000000000000 0.000000 0.000000 0.000000 0.000000
69 2 38.51166954986811675 0.00000000000000000 0.000000 0.000000 0.000000 0.000000
71 2 39.64436571309953194 0.00000000000000000 0.000000 0.000000 0.000000 0.000000
73 2 40.77706187633094714 0.00000000000000000 0.000000 0.000000 0.000000 0.000000
75 2 41.90975803956236234 0.00000000000000000 0.000000 0.000000 0.000000 0.000000
77 2 43.04245420279377754 0.00000000000000000 0.000000 0.000000 0.000000 0.000000
79 2 44.17515036602519274 0.00000000000000000 0.000000 0.000000 0.000000 0.000000
2 2 0.56634808161570760 0.98094365212757073 0.000000 0.000000 0.000000 0.000000
4 2 1.69904424484712280 0.98094365212757073 0.000000 0.000000 0.000000 0.000000
6 2 2.83174040807853800 0.98094365212757073 0.000000 0.000000 0.000000 0.000000
8 2 3.96443657130995319 0.98094365212757073 0.000000 0.000000 0.000000 0.000000
10 2 5.09713273454136839 0.98094365212757073 0.000000 0.000000 0.000000 0.000000
12 2 6.22982889777278359 0.98094365212757073 0.000000 0.000000 0.000000 0.000000
14 2 7.36252506100419879 0.98094365212757073 0.000000 0.000000 0.000000 0.000000
16 2 8.49522122423561399 0.98094365212757073 0.000000 0.000000 0.000000 0.000000
18 2 9.62791738746702919 0.98094365212757073 0.000000 0.000000 0.000000 0.000000
20 2 10.76061355069844439 0.98094365212757073 0.000000 0.000000 0.000000 0.000000
22 2 11.89330971392985958 0.98094365212757073 0.000000 0.000000 0.000000 0.000000
24 2 13.02600587716127478 0.98094365212757073 0.000000 0.000000 0.000000 0.000000
26 2 14.15870204039268998 0.98094365212757073 0.000000 0.000000 0.000000 0.000000
28 2 15.29139820362410518 0.98094365212757073 0.000000 0.000000 0.000000 0.000000
30 2 16.42409436685552038 0.98094365212757073 0.000000 0.000000 0.000000 0.000000
32 2 17.55679053008693558 0.98094365212757073 0.000000 0.000000 0.000000 0.000000
34 2 18.68948669331835077 0.98094365212757073 0.000000 0.000000 0.000000 0.000000
36 2 19.82218285654976597 0.98094365212757073 0.000000 0.000000 0.000000 0.000000
38 2 20.95487901978118117 0.98094365212757073 0.000000 0.000000 0.000000 0.000000
40 2 22.08757518301259637 0.98094365212757073 0.000000 0.000000 0.000000 0.000000
42 2 23.22027134624401157 0.98094365212757073 0.000000 0.000000 0.000000 0.000000
44 2 24.35296750947542677 0.98094365212757073 0.000000 0.000000 0.000000 0.000000
46 2 25.48566367270684196 0.98094365212757073 0.000000 0.000000 0.000000 0.000000
48 2 26.61835983593825716 0.98094365212757073 0.000000 0.000000 0.000000 0.000000
50 2 27.75105599916967236 0.98094365212757073 0.000000 0.000000 0.000000 0.000000
52 2 28.88375216240108756 0.98094365212757073 0.000000 0.000000 0.000000 0.000000
54 2 30.01644832563250276 0.98094365212757073 0.000000 0.000000 0.000000 0.000000
56 2 31.14914448886391796 0.98094365212757073 0.000000 0.000000 0.000000 0.000000
58 2 32.28184065209533316 0.98094365212757073 0.000000 0.000000 0.000000 0.000000
60 2 33.41453681532674835 0.98094365212757073 0.000000 0.000000 0.000000 0.000000
62 2 34.54723297855816355 0.98094365212757073 0.000000 0.000000 0.000000 0.000000
64 2 35.67992914178957875 0.98094365212757073 0.000000 0.000000 0.000000 0.000000
66 2 36.81262530502099395 0.98094365212757073 0.000000 0.000000 0.000000 0.000000
68 2 37.94532146825240915 0.98094365212757073 0.000000 0.000000 0.000000 0.000000
70 2 39.07801763148382435 0.98094365212757073 0.000000 0.000000 0.000000 0.000000
72 2 40.21071379471523954 0.98094365212757073 0.000000 0.000000 0.000000 0.000000
74 2 41.34340995794665474 0.98094365212757073 0.000000 0.000000 0.000000 0.000000
76 2 42.47610612117806994 0.98094365212757073 0.000000 0.000000 0.000000 0.000000
78 2 43.60880228440948514 0.98094365212757073 0.000000 0.000000 0.000000 0.000000
80 2 44.74149844764090034 0.98094365212757073 0.000000 0.000000 0.000000 0.000000
81 2 0.00000000000000000 1.96188730425514146 0.000000 0.000000 0.000000 0.000000
83 2 1.13269616323141520 1.96188730425514146 0.000000 0.000000 0.000000 0.000000
85 2 2.26539232646283040 1.96188730425514146 0.000000 0.000000 0.000000 0.000000
87 2 3.39808848969424560 1.96188730425514146 0.000000 0.000000 0.000000 0.000000
89 2 4.53078465292566079 1.96188730425514146 0.000000 0.000000 0.000000 0.000000
91 2 5.66348081615707599 1.96188730425514146 0.000000 0.000000 0.000000 0.000000
93 2 6.79617697938849119 1.96188730425514146 0.000000 0.000000 0.000000 0.000000
95 2 7.92887314261990639 1.96188730425514146 0.000000 0.000000 0.000000 0.000000
97 2 9.06156930585132159 1.96188730425514146 0.000000 0.000000 0.000000 0.000000
99 2 10.19426546908273679 1.96188730425514146 0.000000 0.000000 0.000000 0.000000
101 2 11.32696163231415198 1.96188730425514146 0.000000 0.000000 0.000000 0.000000
103 2 12.45965779554556718 1.96188730425514146 0.000000 0.000000 0.000000 0.000000
105 2 13.59235395877698238 1.96188730425514146 0.000000 0.000000 0.000000 0.000000
107 2 14.72505012200839758 1.96188730425514146 0.000000 0.000000 0.000000 0.000000
109 2 15.85774628523981278 1.96188730425514146 0.000000 0.000000 0.000000 0.000000
111 2 16.99044244847122798 1.96188730425514146 0.000000 0.000000 0.000000 0.000000
113 2 18.12313861170264317 1.96188730425514146 0.000000 0.000000 0.000000 0.000000
115 2 19.25583477493405837 1.96188730425514146 0.000000 0.000000 0.000000 0.000000
117 2 20.38853093816547357 1.96188730425514146 0.000000 0.000000 0.000000 0.000000
119 2 21.52122710139688877 1.96188730425514146 0.000000 0.000000 0.000000 0.000000
121 2 22.65392326462830397 1.96188730425514146 0.000000 0.000000 0.000000 0.000000
123 2 23.78661942785971917 1.96188730425514146 0.000000 0.000000 0.000000 0.000000
125 2 24.91931559109113437 1.96188730425514146 0.000000 0.000000 0.000000 0.000000
127 2 26.05201175432254956 1.96188730425514146 0.000000 0.000000 0.000000 0.000000
129 2 27.18470791755396476 1.96188730425514146 0.000000 0.000000 0.000000 0.000000
131 2 28.31740408078537996 1.96188730425514146 0.000000 0.000000 0.000000 0.000000
133 2 29.45010024401679516 1.96188730425514146 0.000000 0.000000 0.000000 0.000000
135 2 30.58279640724821036 1.96188730425514146 0.000000 0.000000 0.000000 0.000000
137 2 31.71549257047962556 1.96188730425514146 0.000000 0.000000 0.000000 0.000000
139 2 32.84818873371104075 1.96188730425514146 0.000000 0.000000 0.000000 0.000000
141 2 33.98088489694245595 1.96188730425514146 0.000000 0.000000 0.000000 0.000000
143 2 35.11358106017387115 1.96188730425514146 0.000000 0.000000 0.000000 0.000000
145 2 36.24627722340528635 1.96188730425514146 0.000000 0.000000 0.000000 0.000000
147 2 37.37897338663670155 1.96188730425514146 0.000000 0.000000 0.000000 0.000000
149 2 38.51166954986811675 1.96188730425514146 0.000000 0.000000 0.000000 0.000000
151 2 39.64436571309953194 1.96188730425514146 0.000000 0.000000 0.000000 0.000000
153 2 40.77706187633094714 1.96188730425514146 0.000000 0.000000 0.000000 0.000000
155 2 41.90975803956236234 1.96188730425514146 0.000000 0.000000 0.000000 0.000000
157 2 43.04245420279377754 1.96188730425514146 0.000000 0.000000 0.000000 0.000000
159 2 44.17515036602519274 1.96188730425514146 0.000000 0.000000 0.000000 0.000000
82 1 0.56560063679085670 2.91803317120484307 0.000000 0.000000 0.000000 0.000000
84 1 1.69679554953392708 2.91791920468693622 0.000000 0.000000 0.000000 0.000000
86 1 2.82797242339802501 2.91768772263868170 0.000000 0.000000 0.000000 0.000000
88 1 3.95912289392033401 2.91733174841349507 0.000000 0.000000 0.000000 0.000000
90 1 5.09024475073456806 2.91684124246687659 0.000000 0.000000 0.000000 0.000000
92 1 6.22134579292133250 2.91620400829366710 0.000000 0.000000 0.000000 0.000000
94 1 7.35244918264129854 2.91540773057852265 0.000000 0.000000 0.000000 0.000000
96 1 8.48360065081951120 2.91444420522678449 0.000000 0.000000 0.000000 0.000000
98 1 9.61487722299928294 2.91331740493852465 0.000000 0.000000 0.000000 0.000000
100 1 10.74639506513827492 2.91205713007846434 0.000000 0.000000 0.000000 0.000000
102 1 11.87830935188117287 2.91073746717342274 0.000000 0.000000 0.000000 0.000000
104 1 13.01079175608271221 2.90948947116614232 0.000000 0.000000 0.000000 0.000000
106 1 14.14396945436010533 2.90847930282567546 0.000000 0.000000 0.000000 0.000000
108 1 15.27783941283580660 2.90782635127782330 0.000000 0.000000 0.000000 0.000000
110 1 16.41224147740007311 2.90751882696096153 0.000000 0.000000 0.000000 0.000000
112 1 17.54696144231480304 2.90745717898701672 0.000000 0.000000 0.000000 0.000000
114 1 18.68182493000788469 2.90752859241730999 0.000000 0.000000 0.000000 0.000000
116 1 19.81672628752165011 2.90764493115360478 0.000000 0.000000 0.000000 0.000000
118 1 20.95161812996412465 2.90774887211185984 0.000000 0.000000 0.000000 0.000000
120 1 22.08649100930670173 2.90780799350196206 0.000000 0.000000 0.000000 0.000000
122 1 23.22135551994990621 2.90780799350196206 0.000000 0.000000 0.000000 0.000000
124 1 24.35622839929248329 2.90774887211185984 0.000000 0.000000 0.000000 0.000000
126 1 25.49112024173495783 2.90764493115360478 0.000000 0.000000 0.000000 0.000000
128 1 26.62602159924872325 2.90752859241730999 0.000000 0.000000 0.000000 0.000000
130 1 27.76088508694180490 2.90745717898701672 0.000000 0.000000 0.000000 0.000000
132 1 28.89560505185653483 2.90751882696096153 0.000000 0.000000 0.000000 0.000000
134 1 30.03000711642080134 2.90782635127782330 0.000000 0.000000 0.000000 0.000000
136 1 31.16387707489650438 2.90847930282567546 0.000000 0.000000 0.000000 0.000000
138 1 32.29705477317389750 2.90948947116614232 0.000000 0.000000 0.000000 0.000000
140 1 33.42953717737543684 2.91073746717342274 0.000000 0.000000 0.000000 0.000000
142 1 34.56145146411833480 2.91205713007846478 0.000000 0.000000 0.000000 0.000000
144 1 35.69296930625732500 2.91331740493852465 0.000000 0.000000 0.000000 0.000000
146 1 36.82424587843709674 2.91444420522678449 0.000000 0.000000 0.000000 0.000000
148 1 37.95539734661530673 2.91540773057852265 0.000000 0.000000 0.000000 0.000000
150 1 39.08650073633527455 2.91620400829366710 0.000000 0.000000 0.000000 0.000000
152 1 40.21760177852203810 2.91684124246687615 0.000000 0.000000 0.000000 0.000000
154 1 41.34872363533627038 2.91733174841349552 0.000000 0.000000 0.000000 0.000000
156 1 42.47987410585858470 2.91768772263868126 0.000000 0.000000 0.000000 0.000000
158 1 43.61105097972268396 2.91791920468693666 0.000000 0.000000 0.000000 0.000000
160 1 44.74224589246575334 2.91803317120484307 0.000000 0.000000 0.000000 0.000000
161 1 0.00000000000000009 3.87476437369100601 0.000000 0.000000 0.000000 0.000000
162 1 0.56441722110718995 4.83219819213787982 0.000000 0.000000 0.000000 0.000000
163 1 1.12991282392909720 3.87465418965243957 0.000000 0.000000 0.000000 0.000000
164 1 1.69323747026889393 4.83187614883851335 0.000000 0.000000 0.000000 0.000000
165 1 2.25980439293592283 3.87431958101316987 0.000000 0.000000 0.000000 0.000000
166 1 2.82201748573337685 4.83121879580008429 0.000000 0.000000 0.000000 0.000000
167 1 3.38965719914829888 3.87374840631823636 0.000000 0.000000 0.000000 0.000000
168 1 3.95073853015298626 4.83019957554323565 0.000000 0.000000 0.000000 0.000000
169 1 4.51946176033494051 3.87292062551484673 0.000000 0.000000 0.000000 0.000000
170 1 5.07939494197837771 4.82877887919193061 0.000000 0.000000 0.000000 0.000000
171 1 5.64922200103514438 3.87180900181770671 0.000000 0.000000 0.000000 0.000000
172 1 6.20800130485239254 4.82690526943761622 0.000000 0.000000 0.000000 0.000000
173 1 6.77896235473176301 3.87038110018186954 0.000000 0.000000 0.000000 0.000000
174 1 7.33660162562852136 4.82451915370403128 0.000000 0.000000 0.000000 0.000000
175 1 7.90873716907531232 3.86860410309887293 0.000000 0.000000 0.000000 0.000000
176 1 8.46528109930810402 4.82156165390676872 0.000000 0.000000 0.000000 0.000000
177 1 9.03864264913691073 3.86645514184579264 0.000000 0.000000 0.000000 0.000000
178 1 9.59418080770022108 4.81799335264030226 0.000000 0.000000 0.000000 0.000000
179 1 10.16883040354539247 3.86394122991020827 0.000000 0.000000 0.000000 0.000000
180 1 10.72351489455515861 4.81382964458154738 0.000000 0.000000 0.000000 0.000000
181 1 11.29951859994567442 3.86113282354453569 0.000000 0.000000 0.000000 0.000000
182 1 11.85358718884852358 4.80919866065968371 0.000000 0.000000 0.000000 0.000000
183 1 12.43098991864272840 3.85820795184530008 0.000000 0.000000 0.000000 0.000000
184 1 12.98479626404235532 4.80441506818375430 0.000000 0.000000 0.000000 0.000000
185 1 13.56355342003451447 3.85547871268147224 0.000000 0.000000 0.000000 0.000000
186 1 14.11759669091766511 4.80002038691050359 0.000000 0.000000 0.000000 0.000000
187 1 14.69743865199955302 3.85332885758584620 0.000000 0.000000 0.000000 0.000000
188 1 15.25235142843169278 4.79666514661756249 0.000000 0.000000 0.000000 0.000000
189 1 15.83263248551297231 3.85200819125706007 0.000000 0.000000 0.000000 0.000000
190 1 16.38905308328187971 4.79473406388275780 0.000000 0.000000 0.000000 0.000000
191 1 16.96881486806995198 3.85144248635072239 0.000000 0.000000 0.000000 0.000000
192 1 17.52717906399131209 4.79400792910060147 0.000000 0.000000 0.000000 0.000000
193 1 18.10557912882332587 3.85137804892893643 0.000000 0.000000 0.000000 0.000000
194 1 18.66611102759154406 4.79401428503899751 0.000000 0.000000 0.000000 0.000000
195 1 19.24260838868178780 3.85155855681501746 0.000000 0.000000 0.000000 0.000000
196 1 19.80540041148381647 4.79433083073132060 0.000000 0.000000 0.000000 0.000000
197 1 20.37971781262232440 3.85179711534704206 0.000000 0.000000 0.000000 0.000000
198 1 20.94480204532203160 4.79467309956862220 0.000000 0.000000 0.000000 0.000000
199 1 21.51682777033214578 3.85197925492487947 0.000000 0.000000 0.000000 0.000000
200 1 22.08421746261845087 4.79487965521141213 0.000000 0.000000 0.000000 0.000000
201 1 22.65392326462830397 3.85204595217565959 0.000000 0.000000 0.000000 0.000000
202 1 23.22362906663815707 4.79487965521141213 0.000000 0.000000 0.000000 0.000000
203 1 23.79101875892446216 3.85197925492487947 0.000000 0.000000 0.000000 0.000000
204 1 24.36304448393457633 4.79467309956862220 0.000000 0.000000 0.000000 0.000000
205 1 24.92812871663428353 3.85179711534704206 0.000000 0.000000 0.000000 0.000000
206 1 25.50244611777279147 4.79433083073132060 0.000000 0.000000 0.000000 0.000000
207 1 26.06523814057482014 3.85155855681501746 0.000000 0.000000 0.000000 0.000000
208 1 26.64173550166506388 4.79401428503899751 0.000000 0.000000 0.000000 0.000000
209 1 27.20226740043328206 3.85137804892893643 0.000000 0.000000 0.000000 0.000000
210 1 27.78066746526529585 4.79400792910060147 0.000000 0.000000 0.000000 0.000000
211 1 28.33903166118665595 3.85144248635072239 0.000000 0.000000 0.000000 0.000000
212 1 28.91879344597472823 4.79473406388275780 0.000000 0.000000 0.000000 0.000000
213 1 29.47521404374363740 3.85200819125706007 0.000000 0.000000 0.000000 0.000000
214 1 30.05549510082491693 4.79666514661756249 0.000000 0.000000 0.000000 0.000000
215 1 30.61040787725705670 3.85332885758584620 0.000000 0.000000 0.000000 0.000000
216 1 31.19024983833894282 4.80002038691050359 0.000000 0.000000 0.000000 0.000000
217 1 31.74429310922209169 3.85547871268147224 0.000000 0.000000 0.000000 0.000000
218 1 32.32305026521425617 4.80441506818375430 0.000000 0.000000 0.000000 0.000000
219 1 32.87685661061387776 3.85820795184530008 0.000000 0.000000 0.000000 0.000000
220 1 33.45425934040808613 4.80919866065968371 0.000000 0.000000 0.000000 0.000000
221 1 34.00832792931092996 3.86113282354453524 0.000000 0.000000 0.000000 0.000000
222 1 34.58433163470144933 4.81382964458154738 0.000000 0.000000 0.000000 0.000000
223 1 35.13901612571121547 3.86394122991020827 0.000000 0.000000 0.000000 0.000000
224 1 35.71366572155638863 4.81799335264030226 0.000000 0.000000 0.000000 0.000000
225 1 36.26920388011969720 3.86645514184579264 0.000000 0.000000 0.000000 0.000000
226 1 36.84256542994850747 4.82156165390676872 0.000000 0.000000 0.000000 0.000000
227 1 37.39910936018129917 3.86860410309887293 0.000000 0.000000 0.000000 0.000000
228 1 37.97124490362808302 4.82451915370403128 0.000000 0.000000 0.000000 0.000000
229 1 38.52888417452484759 3.87038110018186954 0.000000 0.000000 0.000000 0.000000
230 1 39.09984522440421273 4.82690526943761622 0.000000 0.000000 0.000000 0.000000
231 1 39.65862452822146622 3.87180900181770671 0.000000 0.000000 0.000000 0.000000
232 1 40.22845158727822934 4.82877887919193061 0.000000 0.000000 0.000000 0.000000
233 1 40.78838476892166653 3.87292062551484673 0.000000 0.000000 0.000000 0.000000
234 1 41.35710799910361857 4.83019957554323565 0.000000 0.000000 0.000000 0.000000
235 1 41.91818933010831216 3.87374840631823680 0.000000 0.000000 0.000000 0.000000
236 1 42.48582904352323197 4.83121879580008429 0.000000 0.000000 0.000000 0.000000
237 1 43.04804213632068155 3.87431958101316942 0.000000 0.000000 0.000000 0.000000
238 1 43.61460905898771045 4.83187614883851335 0.000000 0.000000 0.000000 0.000000
239 1 44.17793370532751140 3.87465418965244002 0.000000 0.000000 0.000000 0.000000
240 1 44.74342930814941610 4.83219819213787982 0.000000 0.000000 0.000000 0.000000
241 1 0.00000000000000019 5.79037424686407132 0.000000 0.000000 0.000000 0.000000
242 1 0.56364573440244337 6.74901088598438026 0.000000 0.000000 0.000000 0.000000
243 1 1.12795564061791476 5.79016745253204590 0.000000 0.000000 0.000000 0.000000
244 1 1.69091771918860201 6.74850861089118137 0.000000 0.000000 0.000000 0.000000
245 1 2.25587805091885807 5.78953776869675973 0.000000 0.000000 0.000000 0.000000
246 1 2.81813373785545052 6.74748022768697897 0.000000 0.000000 0.000000 0.000000
247 1 3.38373915865942232 5.78845720641538808 0.000000 0.000000 0.000000 0.000000
248 1 3.94526493707507697 6.74587784632240517 0.000000 0.000000 0.000000 0.000000
249 1 4.51152166340815786 5.78687898728588035 0.000000 0.000000 0.000000 0.000000
250 1 5.07229575939729571 6.74362941832649287 0.000000 0.000000 0.000000 0.000000
251 1 5.63922558210674030 5.78473797413588731 0.000000 0.000000 0.000000 0.000000
252 1 6.19923053487651821 6.74063958893789650 0.000000 0.000000 0.000000 0.000000
253 1 6.76687625175737306 5.78195280748448504 0.000000 0.000000 0.000000 0.000000
254 1 7.32610152719227337 6.73679312155926446 0.000000 0.000000 0.000000 0.000000
255 1 7.89453441807198519 5.77843199626910131 0.000000 0.000000 0.000000 0.000000
256 1 8.45297928410284527 6.73196382167099472 0.000000 0.000000 0.000000 0.000000
257 1 9.02230925343156365 5.77408797438545207 0.000000 0.000000 0.000000 0.000000
258 1 9.57998684938793943 6.72603398361146620 0.000000 0.000000 0.000000 0.000000
259 1 10.15037553387635860 5.76886568538190403 0.000000 0.000000 0.000000 0.000000
260 1 10.70732073495865855 6.71893250357523542 0.000000 0.000000 0.000000 0.000000
261 1 11.27899655947994972 5.76279490350415813 0.000000 0.000000 0.000000 0.000000
262 1 11.83528342359649521 6.71070370709816988 0.000000 0.000000 0.000000 0.000000
263 1 12.40855306126054991 5.75607472953406596 0.000000 0.000000 0.000000 0.000000
264 1 12.96433241822353644 6.70162080140089600 0.000000 0.000000 0.000000 0.000000
265 1 13.53956848722687667 5.74918272407134001 0.000000 0.000000 0.000000 0.000000
266 1 14.09513958557550239 6.69234351128257288 0.000000 0.000000 0.000000 0.000000
267 1 14.67268459004302628 5.74294049572602372 0.000000 0.000000 0.000000 0.000000
268 1 15.22860010232936823 6.68403857001869550 0.000000 0.000000 0.000000 0.000000
269 1 15.80846480349647720 5.73833691311426186 0.000000 0.000000 0.000000 0.000000
270 1 16.36558292362207467 6.67815017173490411 0.000000 0.000000 0.000000 0.000000
271 1 16.94692947213718170 5.73591121647579349 0.000000 0.000000 0.000000 0.000000
272 1 17.50617303525168467 6.67542166560460792 0.000000 0.000000 0.000000 0.000000
273 1 18.08724760704614454 5.73516461385966370 0.000000 0.000000 0.000000 0.000000
274 1 18.64902304342449213 6.67484042594401483 0.000000 0.000000 0.000000 0.000000
275 1 19.22854443373529065 5.73532653986631580 0.000000 0.000000 0.000000 0.000000
276 1 19.79294604959989456 6.67524786719487651 0.000000 0.000000 0.000000 0.000000
277 1 20.37024859138262300 5.73579486294609264 0.000000 0.000000 0.000000 0.000000
278 1 20.93726976692954977 6.67586531438567299 0.000000 0.000000 0.000000 0.000000
279 1 21.51207585404893052 5.73620013024773989 0.000000 0.000000 0.000000 0.000000
280 1 22.08170041401366390 6.67626538637062161 0.000000 0.000000 0.000000 0.000000
281 1 22.65392326462830397 5.73635412327866323 0.000000 0.000000 0.000000 0.000000
282 1 23.22614611524294403 6.67626538637062161 0.000000 0.000000 0.000000 0.000000
283 1 23.79577067520767741 5.73620013024773989 0.000000 0.000000 0.000000 0.000000
284 1 24.37057676232705816 6.67586531438567299 0.000000 0.000000 0.000000 0.000000
285 1 24.93759793787398493 5.73579486294609264 0.000000 0.000000 0.000000 0.000000
286 1 25.51490047965671337 6.67524786719487651 0.000000 0.000000 0.000000 0.000000
287 1 26.07930209552131728 5.73532653986631580 0.000000 0.000000 0.000000 0.000000
288 1 26.65882348583211581 6.67484042594401483 0.000000 0.000000 0.000000 0.000000
289 1 27.22059892221046340 5.73516461385966370 0.000000 0.000000 0.000000 0.000000
290 1 27.80167349400492327 6.67542166560460792 0.000000 0.000000 0.000000 0.000000
291 1 28.36091705711942623 5.73591121647579349 0.000000 0.000000 0.000000 0.000000
292 1 28.94226360563453326 6.67815017173490411 0.000000 0.000000 0.000000 0.000000
293 1 29.49938172576013073 5.73833691311426186 0.000000 0.000000 0.000000 0.000000
294 1 30.07924642692723793 6.68403857001869550 0.000000 0.000000 0.000000 0.000000
295 1 30.63516193921358166 5.74294049572602372 0.000000 0.000000 0.000000 0.000000
296 1 31.21270694368110554 6.69234351128257288 0.000000 0.000000 0.000000 0.000000
297 1 31.76827804202973127 5.74918272407134001 0.000000 0.000000 0.000000 0.000000
298 1 32.34351411103307328 6.70162080140089600 0.000000 0.000000 0.000000 0.000000
299 1 32.89929346799605980 5.75607472953406596 0.000000 0.000000 0.000000 0.000000
300 1 33.47256310566011450 6.71070370709816988 0.000000 0.000000 0.000000 0.000000
301 1 34.02884996977665821 5.76279490350415813 0.000000 0.000000 0.000000 0.000000
302 1 34.60052579429795117 6.71893250357523542 0.000000 0.000000 0.000000 0.000000
303 1 35.15747099538025111 5.76886568538190403 0.000000 0.000000 0.000000 0.000000
304 1 35.72785967986866495 6.72603398361146620 0.000000 0.000000 0.000000 0.000000
305 1 36.28553727582504251 5.77408797438545207 0.000000 0.000000 0.000000 0.000000
306 1 36.85486724515376267 6.73196382167099472 0.000000 0.000000 0.000000 0.000000
307 1 37.41331211118462363 5.77843199626910131 0.000000 0.000000 0.000000 0.000000
308 1 37.98174500206433635 6.73679312155926446 0.000000 0.000000 0.000000 0.000000
309 1 38.54097027749923399 5.78195280748448504 0.000000 0.000000 0.000000 0.000000
310 1 39.10861599438008795 6.74063958893789650 0.000000 0.000000 0.000000 0.000000
311 1 39.66862094714986853 5.78473797413588731 0.000000 0.000000 0.000000 0.000000
312 1 40.23555076985931578 6.74362941832649287 0.000000 0.000000 0.000000 0.000000
313 1 40.79632486584844742 5.78687898728588035 0.000000 0.000000 0.000000 0.000000
314 1 41.36258159218153452 6.74587784632240517 0.000000 0.000000 0.000000 0.000000
315 1 41.92410737059718429 5.78845720641538808 0.000000 0.000000 0.000000 0.000000
316 1 42.48971279140116053 6.74748022768697897 0.000000 0.000000 0.000000 0.000000
317 1 43.05196847833774854 5.78953776869675973 0.000000 0.000000 0.000000 0.000000
318 1 43.61692881006800349 6.74850861089118137 0.000000 0.000000 0.000000 0.000000
319 1 44.17989088863869540 5.79016745253204590 0.000000 0.000000 0.000000 0.000000
320 1 44.74420079485416579 6.74901088598438026 0.000000 0.000000 0.000000 0.000000
321 1 0.00000000000000028 7.70823474059279068 0.000000 0.000000 0.000000 0.000000
322 1 0.56327955555999576 8.66767953463848073 0.000000 0.000000 0.000000 0.000000
323 1 1.12682067095834126 7.70794650612695520 0.000000 0.000000 0.000000 0.000000
324 1 1.68981398425111617 8.66703149759532643 0.000000 0.000000 0.000000 0.000000
325 1 2.25359776015069313 7.70706751663616885 0.000000 0.000000 0.000000 0.000000
326 1 2.81627611104524522 8.66570263835236787 0.000000 0.000000 0.000000 0.000000
327 1 3.38029211464202550 7.70555474826104358 0.000000 0.000000 0.000000 0.000000
328 1 3.94262363158033180 8.66362703578954196 0.000000 0.000000 0.000000 0.000000
329 1 4.50687368109905684 7.70333609988844170 0.000000 0.000000 0.000000 0.000000
330 1 5.06882338689061829 8.66070521403942273 0.000000 0.000000 0.000000 0.000000
331 1 5.63332669841181932 7.70031040484335172 0.000000 0.000000 0.000000 0.000000
332 1 6.19485572559343556 8.65680429641625260 0.000000 0.000000 0.000000 0.000000
333 1 6.75965580595913096 7.69634885691951531 0.000000 0.000000 0.000000 0.000000
334 1 7.32071988694824416 8.65175989581723570 0.000000 0.000000 0.000000 0.000000
335 1 7.88589374491109751 7.69129977321440794 0.000000 0.000000 0.000000 0.000000
336 1 8.44644136572151893 8.64538173213350447 0.000000 0.000000 0.000000 0.000000
337 1 9.01211196664942271 7.68500002201639010 0.000000 0.000000 0.000000 0.000000
338 1 9.57208317184669433 8.63746637570906550 0.000000 0.000000 0.000000 0.000000
339 1 10.13843675862462668 7.67729878277421385 0.000000 0.000000 0.000000 0.000000
340 1 10.69776470974439597 8.62782315709808501 0.000000 0.000000 0.000000 0.000000
341 1 11.26507585115359866 7.66810328487930892 0.000000 0.000000 0.000000 0.000000
342 1 11.82369529461817415 8.61632466591748347 0.000000 0.000000 0.000000 0.000000
343 1 12.39236402697811457 7.65746280373529142 0.000000 0.000000 0.000000 0.000000
344 1 12.95023500617329049 8.60300433062169034 0.000000 0.000000 0.000000 0.000000
345 1 13.52083924408006510 7.64571563495285300 0.000000 0.000000 0.000000 0.000000
346 1 14.07800383084428120 8.58824321210327568 0.000000 0.000000 0.000000 0.000000
347 1 14.65135190405487542 7.63371797915883032 0.000000 0.000000 0.000000 0.000000
348 1 15.20806112102805585 8.57310212689364270 0.000000 0.000000 0.000000 0.000000
349 1 15.78513941752952121 7.62307138895562986 0.000000 0.000000 0.000000 0.000000
350 1 16.34209995154865425 8.55973976592201602 0.000000 0.000000 0.000000 0.000000
351 1 16.92353652125951058 7.61586092151986715 0.000000 0.000000 0.000000 0.000000
352 1 17.48216276529314328 8.55116335225767621 0.000000 0.000000 0.000000 0.000000
353 1 18.06677211860264265 7.61313784725448794 0.000000 0.000000 0.000000 0.000000
354 1 18.62880371875726482 8.54893811549129090 0.000000 0.000000 0.000000 0.000000
355 1 19.21259203243734248 7.61295527335507405 0.000000 0.000000 0.000000 0.000000
356 1 19.77813447690270365 8.54942366095658279 0.000000 0.000000 0.000000 0.000000
357 1 20.35946135367895238 7.61368972016645884 0.000000 0.000000 0.000000 0.000000
358 1 20.92832892378551790 8.55053134768180989 0.000000 0.000000 0.000000 0.000000
359 1 21.50665903376821575 7.61442042332496705 0.000000 0.000000 0.000000 0.000000
360 1 22.07871883740522279 8.55127969722406611 0.000000 0.000000 0.000000 0.000000