ITEM: TIMESTEP
0
ITEM: NUMBER OF ATOMS
840
ITEM: BOX BOUNDS pp ss pp
0 45.3078
-1.09989 20.332
-0.283174 0.283174
ITEM: ATOMS id type fx fy fz 
1 2 0 0 0 
3 2 0 0 0 
5 2 0 0 0 
7 2 0 0 0 
9 2 0 0 0 
11 2 0 0 0 
13 2 0 0 0 
15 2 0 0 0 
17 2 0 0 0 
19 2 0 0 0 
21 2 0 0 0 
23 2 0 0 0 
25 2 0 0 0 
27 2 0 0 0 
29 2 0 0 0 
31 2 0 0 0 
33 2 0 0 0 
35 2 0 0 0 
37 2 0 0 0 
39 2 0 0 0 
41 2 0 0 0 
43 2 0 0 0 
45 2 0 0 0 
47 2 0 0 0 
49 2 0 0 0 
51 2 0 0 0 
53 2 0 0 0 
55 2 0 0 0 
57 2 0 0 0 
59 2 0 0 0 
61 2 0 0 0 
63 2 0 0 0 
65 2 0 0 0 
67 2 0 0 0 
69 2 0 0 0 
71 2 0 0 0 
73 2 0 0 0 
75 2 0 0 0 
77 2 0 0 0 
79 2 0 0 0 
2 2 0 0 0 
4 2 0 0 0 
6 2 0 0 0 
8 2 0 0 0 
10 2 0 0 0 
12 2 0 0 0 
14 2 0 0 0 
16 2 0 0 0 
18 2 0 0 0 
20 2 0 0 0 
22 2 0 0 0 
24 2 0 0 0 
26 2 0 0 0 
28 2 0 0 0 
30 2 0 0 0 
32 2 0 0 0 
34 2 0 0 0 
36 2 0 0 0 
38 2 0 0 0 
40 2 0 0 0 
42 2 0 0 0 
44 2 0 0 0 
46 2 0 0 0 
48 2 0 0 0 
50 2 0 0 0 
52 2 0 0 0 
54 2 0 0 0 
56 2 0 0 0 
58 2 0 0 0 
60 2 0 0 0 
62 2 0 0 0 
64 2 0 0 0 
66 2 0 0 0 
68 2 0 0 0 
70 2 0 0 0 
72 2 0 0 0 
74 2 0 0 0 
76 2 0 0 0 
78 2 0 0 0 
80 2 0 0 0 
81 2 0 0 0 
83 2 0 0 0 
82 1 -0.377443 -0.495129 0 
85 2 0 0 0 
84 1 -0.194432 -0.0107949 0 
87 2 0 0 0 
86 1 -0.17792 -0.439833 0 
88 1 -0.0046307 0.789218 0 
89 2 0 0 0 
90 1 0.715584 -0.58399 0 
91 2 0 0 0 
93 2 0 0 0 
92 1 -0.659821 0.496894 0 
95 2 0 0 0 
94 1 0.245893 -0.276387 0 
96 1 0.215315 -0.0891645 0 
97 2 0 0 0 
98 1 -0.254675 0.21496 0 
99 2 0 0 0 
100 1 0.336936 0.77651 0 
101 2 0 0 0 
103 2 0 0 0 
102 1 0.205466 0.639621 0 
105 2 0 0 0 
104 1 -0.012069 -0.125651 0 
106 1 -0.125898 -1.61315 0 
107 2 0 0 0 
108 1 0.231995 1.01153 0 
109 2 0 0 0 
110 1 0.185011 -0.0913698 0 
111 2 0 0 0 
113 2 0 0 0 
112 1 0.126783 -0.276183 0 
115 2 0 0 0 
114 1 -0.753675 -0.40455 0 
116 1 1.15915 -0.522946 0 
117 2 0 0 0 
118 1 -0.819491 -0.607234 0 
119 2 0 0 0 
120 1 1.00526 0.000895019 0 
121 2 0 0 0 
123 2 0 0 0 
122 1 -0.249801 1.19667 0 
125 2 0 0 0 
124 1 0.0553609 -1.15123 0 
127 2 0 0 0 
126 1 0.389961 0.259119 0 
128 1 -0.370481 1.1277 0 
129 2 0 0 0 
130 1 0.247399 0.0331519 0 
131 2 0 0 0 
133 2 0 0 0 
132 1 1.07034 -1.40813 0 
135 2 0 0 0 
134 1 -0.183928 -0.354027 0 
137 2 0 0 0 
136 1 -0.486287 0.889363 0 
138 1 0.357959 -1.69567 0 
139 2 0 0 0 
140 1 -0.28684 0.680151 0 
141 2 0 0 0 
143 2 0 0 0 
142 1 -0.81972 -1.07486 0 
145 2 0 0 0 
144 1 0.723938 -1.28045 0 
147 2 0 0 0 
146 1 0.693933 -0.488874 0 
148 1 -1.0875 0.0340362 0 
149 2 0 0 0 
150 1 0.699056 -0.216295 0 
151 2 0 0 0 
153 2 0 0 0 
152 1 -0.342386 0.491105 0 
155 2 0 0 0 
154 1 0.119846 -0.242344 0 
157 2 0 0 0 
156 1 -0.622236 0.861466 0 
158 1 -0.795883 -0.459396 0 
159 2 0 0 0 
160 1 1.27648 -0.126214 0 
161 1 0.0231694 -0.0130633 0 
163 1 -0.294155 0.788165 0 
165 1 0.27915 0.0811079 0 
167 1 0.189586 -0.0851982 0 
169 1 -0.177826 0.994226 0 
171 1 0.382435 -1.04695 0 
173 1 0.801086 0.318023 0 
175 1 -0.899644 -0.206653 0 
177 1 0.353812 -1.08442 0 
179 1 -0.155948 0.129923 0 
181 1 -0.616256 0.0354482 0 
183 1 -0.327164 -0.723867 0 
185 1 -0.331086 1.2747 0 
187 1 0.526267 -1.39272 0 
189 1 0.339482 0.203106 0 
191 1 -0.663447 0.220719 0 
193 1 0.559014 0.427872 0 
195 1 -0.504675 0.786651 0 
197 1 -0.412568 -0.955971 0 
199 1 0.604835 0.444586 0 
201 1 -0.840662 -0.632728 0 
203 1 -0.206537 -0.782442 0 
205 1 0.944542 0.845401 0 
207 1 0.334296 -0.279204 0 
209 1 -0.244766 -0.677066 0 
211 1 -0.74915 0.913568 0 
213 1 -0.511943 -1.11166 0 
215 1 1.53411 -1.19258 0 
217 1 -1.69769 1.60793 0 
219 1 1.23584 -0.216299 0 
221 1 0.0445224 -0.100461 0 
223 1 0.616764 1.53134 0 
225 1 -0.272506 0.523635 0 
227 1 0.537734 0.354215 0 
229 1 0.294348 0.500726 0 
231 1 -0.665197 -0.127845 0 
233 1 -0.48164 -1.18817 0 
235 1 1.00212 -0.0338372 0 
237 1 -0.140845 -0.100341 0 
239 1 -0.0529217 1.06709 0 
162 1 -0.685551 -0.722624 0 
241 1 -0.0839131 0.518129 0 
243 1 0.699463 -0.0646812 0 
164 1 0.649881 0.357013 0 
166 1 -0.220623 0.613244 0 
245 1 0.172529 0.246548 0 
168 1 0.389989 -1.3814 0 
247 1 -1.49453 0.122251 0 
170 1 -0.60998 -0.0964304 0 
249 1 1.13125 0.481217 0 
251 1 0.45785 0.873346 0 
172 1 -0.157912 0.223256 0 
253 1 -0.654244 0.834953 0 
174 1 -0.20133 -1.08105 0 
176 1 -0.865318 -0.237842 0 
255 1 -0.502714 0.41166 0 
178 1 1.3659 0.923852 0 
257 1 0.798187 0.455657 0 
180 1 -0.408144 0.609513 0 
259 1 -0.199674 -0.815709 0 
261 1 0.0812779 -1.21478 0 
182 1 0.3149 0.470931 0 
263 1 0.0838526 -0.475343 0 
184 1 0.529895 0.557129 0 
186 1 -1.19838 0.529262 0 
265 1 0.353401 0.0406814 0 
188 1 0.795531 0.668207 0 
267 1 -0.178062 0.149467 0 
190 1 0.00645697 -1.66229 0 
269 1 -0.245068 0.509477 0 
271 1 0.616487 1.4398 0 
192 1 -0.580385 -0.945178 0 
273 1 -0.0564587 1.26923 0 
194 1 0.273204 -0.0345276 0 
196 1 -0.133316 -0.919065 0 
275 1 -0.312816 0.616387 0 
198 1 0.641377 0.0676141 0 
277 1 -0.132139 0.7051 0 
200 1 -0.0257866 0.62918 0 
279 1 0.68741 0.621318 0 
202 1 0.228866 -0.326382 0 
281 1 -0.741699 -0.541793 0 
283 1 0.598204 -0.185999 0 
204 1 -0.209398 0.394447 0 
285 1 0.00329007 -0.212385 0 
206 1 -1.07688 -0.281261 0 
208 1 0.438941 -1.10319 0 
287 1 0.436837 0.901075 0 
210 1 -0.0360647 -0.627379 0 
289 1 -0.730447 1.00339 0 
212 1 -0.0900217 0.887013 0 
291 1 0.642131 0.520141 0 
293 1 0.488182 -1.48803 0 
214 1 -1.10985 1.7641 0 
295 1 -1.18276 1.6401 0 
216 1 1.29875 -2.06214 0 
218 1 0.15865 0.705907 0 
297 1 0.985637 0.673607 0 
220 1 -0.374365 0.774039 0 
299 1 -0.765111 -0.949314 0 
222 1 -0.720363 -0.156555 0 
301 1 0.549339 -0.968546 0 
303 1 -0.420867 1.08125 0 
224 1 0.00527608 -1.32297 0 
305 1 0.442355 -0.0394976 0 
226 1 -0.40622 -0.584975 0 
228 1 -0.762478 0.383508 0 
307 1 0.835078 -1.1199 0 
230 1 0.858911 -0.436517 0 
309 1 -0.611126 0.0741379 0 
232 1 0.0587187 0.85082 0 
311 1 -0.160106 -0.922684 0 
313 1 0.80201 -0.183929 0 
234 1 -0.0156806 1.1198 0 
315 1 -1.06342 -0.654543 0 
236 1 -0.107723 -1.01889 0 
238 1 -0.468405 -0.713696 0 
317 1 0.919897 0.649421 0 
240 1 0.138292 -0.635868 0 
319 1 -0.350863 1.19983 0 
242 1 -1.19018 -0.572976 0 
244 1 0.702834 -0.858176 0 
246 1 -0.250828 -0.840348 0 
248 1 -0.204339 0.443019 0 
250 1 0.679425 -1.03414 0 
252 1 -0.58468 -0.100259 0 
254 1 0.994322 -0.32806 0 
256 1 -0.658782 0.0845794 0 
258 1 -0.175027 0.0530437 0 
260 1 -0.841018 0.0278248 0 
262 1 0.887795 -0.301129 0 
264 1 0.469456 0.552957 0 
266 1 -1.21904 -1.42683 0 
268 1 -0.569679 -0.0506951 0 
270 1 0.510408 -1.21947 0 
272 1 -0.0548807 -1.30729 0 
274 1 -0.285065 -0.806965 0 
276 1 -0.625454 -0.288754 0 
278 1 0.283958 -0.405863 0 
280 1 0.132173 -0.256408 0 
282 1 -1.04319 0.369954 0 
284 1 0.394496 0.988883 0 
286 1 0.712421 0.821296 0 
288 1 -0.755736 -0.9855 0 
290 1 0.68175 0.0879209 0 
292 1 -0.616241 -0.33324 0 
294 1 0.628908 -0.468106 0 
296 1 0.6985 -0.26159 0 
298 1 -1.07239 -0.744892 0 
300 1 0.596476 0.191697 0 
302 1 1.33359 -0.360469 0 
304 1 -0.952546 -0.0205645 0 
306 1 -0.570517 1.0894 0 
308 1 0.811369 0.927992 0 
310 1 -0.27618 1.17491 0 
312 1 -0.0273944 0.514832 0 
314 1 -0.800442 -0.706525 0 
316 1 1.3347 1.01036 0 
318 1 -0.565001 -0.643251 0 
320 1 0.827453 -1.03652 0 
321 1 0.56786 -0.222105 0 
322 1 0.252632 0.758813 0 
323 1 0.0333328 1.03051 0 
324 1 -0.45866 -0.391791 0 
325 1 0.612551 1.02251 0 
326 1 -0.0188063 -0.228713 0 
327 1 -0.743713 0.499741 0 
328 1 -0.117127 -0.689222 0 
329 1 0.248094 0.542039 0 
330 1 -0.140517 0.465564 0 
331 1 0.38096 -0.620923 0 
332 1 0.568683 0.552013 0 
333 1 -0.0383749 0.0277926 0 
334 1 -0.369059 0.218858 0 
335 1 -0.363776 -0.86393 0 
336 1 0.843091 -0.0418998 0 
337 1 0.277935 0.0378452 0 
338 1 -0.431225 -0.584106 0 
339 1 0.985544 1.1498 0 
340 1 -0.174519 -2.00453 0 
341 1 -1.14047 1.19749 0 
342 1 0.384153 0.856453 0 
343 1 0.676033 0.271791 0 
344 1 0.350955 -0.509129 0 
345 1 -0.552654 -0.855721 0 
346 1 0.206996 0.352349 0 
347 1 1.41626 1.71364 0 
348 1 -1.23006 -1.81818 0 
349 1 -0.305045 0.942046 0 
350 1 0.490632 1.23917 0 
351 1 0.112396 0.0802319 0 
352 1 -0.259458 -0.411894 0 
353 1 0.147027 0.514209 0 
354 1 0.383133 -0.913264 0 
355 1 0.593239 -0.113312 0 
356 1 -0.646384 -0.738005 0 
357 1 0.313178 0.29411 0 
358 1 -0.046754 -0.644404 0 
359 1 -0.748071 -0.0930542 0 
360 1 0.410583 1.0065 0 
361 1 0.21676 -1.39833 0 
362 1 0.0183313 1.58571 0 
363 1 1.05859 -0.64332 0 
364 1 -0.663009 -0.251759 0 
365 1 -0.20529 -0.190333 0 
366 1 0.0508702 -0.72244 0 
367 1 -0.465815 -0.953967 0 
368 1 -0.770119 1.11823 0 
369 1 0.221916 -0.461258 0 
370 1 -0.411009 1.09212 0 
371 1 -0.177964 -0.464681 0 
372 1 0.230968 -0.743337 0 
373 1 0.601106 1.07924 0 
374 1 -0.732951 0.405347 0 
375 1 0.114243 -0.333216 0 
376 1 0.208378 -0.140903 0 
377 1 -0.846213 -0.488206 0 
378 1 0.222829 0.912196 0 
379 1 -0.257283 0.516987 0 
380 1 0.560965 0.432626 0 
381 1 -0.446728 0.849953 0 
382 1 -0.425393 0.295584 0 
383 1 0.0171948 -1.13588 0 
384 1 -0.38502 0.247619 0 
385 1 0.163402 0.00521802 0 
386 1 0.318159 0.588501 0 
387 1 0.173391 -0.286929 0 
388 1 0.202536 -0.219788 0 
389 1 -0.132373 -1.0577 0 
390 1 0.22911 0.499446 0 
391 1 -0.374901 -0.559776 0 
392 1 -0.754677 -0.714812 0 
393 1 0.141086 0.357049 0 
394 1 1.06856 -0.412864 0 
395 1 -0.24555 0.367143 0 
396 1 -0.0690828 0.0434175 0 
397 1 -1.0018 -0.359164 0 
398 1 0.416927 1.41367 0 
399 1 0.223627 0.272659 0 
400 1 -0.77694 0.813365 0 
401 1 0.712389 -1.17959 0 
403 1 0.114516 -0.781189 0 
405 1 0.211716 -0.642851 0 
407 1 -0.398592 0.393378 0 
409 1 0.090663 -0.20998 0 
411 1 0.205618 -0.365266 0 
413 1 -0.868 0.271585 0 
415 1 -0.524674 0.176786 0 
417 1 0.0547617 -0.766215 0 
419 1 -0.407638 1.01943 0 
421 1 0.371726 0.0121836 0 
423 1 -1.42058 -0.708181 0 
425 1 1.04072 -0.648617 0 
427 1 -0.102522 0.81974 0 
429 1 0.850896 0.82874 0 
431 1 -0.833269 -0.708695 0 
433 1 -0.305882 1.38923 0 
435 1 0.0182965 -0.0703564 0 
437 1 0.900607 1.60949 0 
439 1 0.365675 0.933201 0 
441 1 0.155645 -1.2479 0 
443 1 -0.116503 0.648518 0 
445 1 -0.312941 1.90353 0 
447 1 0.595878 -0.747844 0 
449 1 0.679344 0.733763 0 
451 1 -1.01224 0.880925 0 
453 1 0.0617717 -0.103034 0 
455 1 0.411382 -0.743125 0 
457 1 -0.141059 -0.938652 0 
459 1 0.789678 0.602507 0 
461 1 -1.34778 -0.233385 0 
463 1 0.892954 -0.626004 0 
465 1 0.558885 0.372077 0 
467 1 0.0498084 -0.145882 0 
469 1 -0.653555 -0.220371 0 
471 1 -0.245073 0.539948 0 
473 1 0.742596 1.28099 0 
475 1 -0.791084 -0.605639 0 
477 1 0.957302 -0.860839 0 
479 1 -1.1708 -1.23637 0 
402 1 0.253496 -0.159574 0 
481 1 -0.570449 0.414262 0 
483 1 0.903294 -0.158127 0 
404 1 -0.73089 0.238728 0 
406 1 0.924742 0.598839 0 
485 1 0.11114 0.872868 0 
408 1 -0.717387 0.636886 0 
487 1 -0.163634 -0.652746 0 
410 1 0.0477294 0.640643 0 
489 1 -0.110011 -0.514714 0 
491 1 -0.0208884 0.614228 0 
412 1 0.555775 -1.06943 0 
493 1 0.198697 0.340243 0 
414 1 0.370477 0.572117 0 
416 1 0.00787224 0.525728 0 
495 1 -0.641232 -0.863676 0 
418 1 -0.473571 0.190479 0 
497 1 0.467891 -0.0915484 0 
420 1 0.131462 -0.447389 0 
499 1 0.189299 1.07511 0 
501 1 -0.31159 0.759627 0 
422 1 0.980552 0.537456 0 
503 1 0.493644 -1.34427 0 
424 1 -0.557324 0.973593 0 
426 1 -0.637287 -0.327948 0 
505 1 0.650271 0.302709 0 
428 1 0.0841259 -0.485739 0 
507 1 -0.621684 0.629296 0 
430 1 0.110854 -1.24274 0 
509 1 -0.251973 -0.792577 0 
511 1 0.955905 1.4806 0 
432 1 -0.0392902 -0.457015 0 
513 1 0.639028 -0.586357 0 
434 1 -0.455192 1.07676 0 
436 1 0.128812 -0.841725 0 
515 1 -1.17977 0.26162 0 
438 1 -0.529847 -1.15975 0 
517 1 1.17986 -0.157895 0 
440 1 -0.881461 0.500968 0 
519 1 0.212977 0.794768 0 
442 1 0.64217 -1.13431 0 
521 1 -0.406263 -0.158301 0 
523 1 -0.134339 0.956298 0 
444 1 0.958117 -1.56988 0 
525 1 -0.849489 -0.512804 0 
446 1 -0.611178 -0.437312 0 
448 1 0.348708 0.0772883 0 
527 1 0.97796 -1.02496 0 
450 1 0.54709 -1.24851 0 
529 1 0.514872 -0.392635 0 
452 1 0.343981 0.47874 0 
531 1 -0.546431 0.102016 0 
533 1 -0.0747578 -1.00586 0 
454 1 -0.520787 1.10545 0 
535 1 0.0594363 0.0322282 0 
456 1 0.327702 0.704848 0 
458 1 -0.0448092 -0.92169 0 
537 1 -0.628355 0.427011 0 
460 1 0.303733 -1.44405 0 
539 1 -0.170127 1.41745 0 
462 1 -0.402719 1.06058 0 
541 1 -0.0932998 -0.937013 0 
543 1 0.68376 -0.735583 0 
464 1 0.0161371 0.438831 0 
545 1 0.291554 0.159033 0 
466 1 -0.521129 -0.946803 0 
468 1 -0.527549 -1.12049 0 
547 1 -0.273386 0.722733 0 
470 1 1.13452 -0.0722767 0 
549 1 0.770216 1.35348 0 
472 1 -0.634108 0.159548 0 
551 1 0.140905 -0.771724 0 
553 1 -0.744745 0.339375 0 
474 1 0.0587902 -0.644347 0 
555 1 1.0152 -0.942257 0 
476 1 -0.585233 0.512495 0 
478 1 0.275982 0.093682 0 
557 1 -0.264356 0.682561 0 
480 1 0.446301 1.29271 0 
559 1 -0.535061 -0.488859 0 
482 1 -0.0617095 0.294663 0 
484 1 0.328997 -0.77484 0 
486 1 -0.879089 -0.875803 0 
488 1 -0.209874 0.235308 0 
490 1 0.929684 -0.665699 0 
492 1 -0.182741 -0.153538 0 
494 1 -0.201263 -0.549445 0 
496 1 0.510999 -0.0649131 0 
498 1 0.458265 0.762152 0 
500 1 -0.555022 -1.27301 0 
502 1 -1.07541 0.883965 0 
504 1 -0.0463131 -0.643804 0 
506 1 0.774591 -0.868023 0 
508 1 -0.876438 1.00535 0 
510 1 0.23522 1.00403 0 
512 1 -0.651942 -0.897033 0 
514 1 -0.110118 -0.572286 0 
516 1 -0.0450069 1.41805 0 
518 1 -0.155087 -1.05944 0 
597 1 -0.747861 -0.259059 0 
520 1 -0.46707 -1.6197 0 
522 1 0.0854541 0.563863 0 
524 1 0.550869 -0.410219 0 
605 1 0.199571 -0.721316 0 
526 1 -0.702942 1.69622 0 
528 1 -1.02055 1.71274 0 
530 1 -0.438317 -0.147919 0 
532 1 0.015939 -0.484889 0 
534 1 0.596879 -0.785007 0 
536 1 -0.713566 -0.523857 0 
538 1 0.830214 -0.930115 0 
540 1 -0.236483 0.537926 0 
542 1 1.01492 0.956406 0 
544 1 -0.911033 0.63807 0 
546 1 -0.444457 -0.254201 0 
548 1 0.779584 -0.44975 0 
550 1 -1.02618 -0.227991 0 
552 1 0.306335 -0.399042 0 
554 1 -0.63755 0.13415 0 
556 1 0.442147 0.744286 0 
558 1 0.763657 0.132843 0 
560 1 -0.39404 0.711839 0 
561 1 0.268705 -0.683716 0 
562 1 0.450641 -0.169851 0 
563 1 -0.1889 0.542806 0 
564 1 -0.20562 -0.583311 0 
565 1 -0.750213 -0.390479 0 
566 1 0.183738 -0.101351 0 
567 1 1.64936 1.03101 0 
568 1 -0.735795 -1.74987 0 
569 1 -0.838555 0.914875 0 
570 1 0.810595 0.0622792 0 
571 1 -0.217917 0.514662 0 
572 1 0.192513 -0.739455 0 
573 1 -0.991007 0.0792831 0 
574 1 -0.613715 0.11311 0 
575 1 0.965776 0.969183 0 
576 1 0.300436 -1.00655 0 
577 1 -0.47386 -0.606608 0 
578 1 0.892022 0.644167 0 
579 1 -0.157674 -0.618554 0 
580 1 -1.08445 1.23158 0 
581 1 0.631722 -0.48897 0 
582 1 0.438785 0.95851 0 
583 1 0.0713402 -0.573563 0 
584 1 -1.03059 -0.00778846 0 
585 1 0.31608 0.870879 0 
586 1 0.915558 -0.0691657 0 
587 1 0.609339 -0.16885 0 
588 1 -0.120416 -0.662498 0 
589 1 0.0139124 -0.940518 0 
590 1 0.462687 1.07467 0 
591 1 -1.03868 -0.181255 0 
592 1 0.639839 0.476896 0 
593 1 0.800449 -0.318119 0 
594 1 -0.92499 0.576426 0 
595 1 0.112324 -0.809078 0 
596 1 -0.254034 -1.01335 0 
598 1 1.37486 1.02004 0 
599 1 -0.433725 1.2333 0 
600 1 0.00454127 -1.04824 0 
601 1 0.797403 1.30459 0 
602 1 0.175975 -1.34348 0 
603 1 -0.194113 1.4051 0 
604 1 0.133098 -1.16384 0 
606 1 -0.0215776 0.0746629 0 
607 1 1.01882 -0.596914 0 
608 1 -1.05781 -0.925033 0 
609 1 0.577175 -0.592601 0 
610 1 1.09712 -1.324 0 
611 1 -0.784851 0.904686 0 
612 1 0.244753 -0.109781 0 
613 1 0.0859746 1.10719 0 
614 1 -0.839375 -0.62146 0 
615 1 0.731695 0.75493 0 
616 1 0.0423478 -1.18643 0 
617 1 -1.28375 0.653661 0 
618 1 0.62886 0.301944 0 
619 1 1.16692 0.570385 0 
620 1 0.0564049 -0.0115495 0 
621 1 -0.862329 -0.0481658 0 
622 1 -0.558234 -0.176924 0 
623 1 -0.367644 -1.15851 0 
624 1 0.796189 0.630353 0 
625 1 0.028339 0.000365931 0 
626 1 -0.137872 -0.689483 0 
627 1 0.0100606 0.558973 0 
628 1 -0.412131 0.150689 0 
629 1 0.393419 0.0660428 0 
630 1 -0.300599 -0.808339 0 
631 1 -0.282551 0.00188068 0 
632 1 0.640897 0.571229 0 
633 1 0.229618 0.634397 0 
634 1 -0.85819 0.713982 0 
635 1 0.712508 -0.990294 0 
636 1 0.374584 -0.287687 0 
637 1 -0.959962 -0.183702 0 
638 1 0.399962 0.609364 0 
639 1 0.182615 -0.876506 0 
640 1 -0.860253 -0.30621 0 
641 1 0.522332 1.01713 0 
643 1 -0.622016 0.669261 0 
645 1 -0.327673 0.615356 0 
647 1 0.532973 0.681331 0 
649 1 0.302114 0.53325 0 
651 1 -0.213769 -0.259182 0 
653 1 0.613101 -0.170532 0 
655 1 -0.866456 0.473412 0 
657 1 0.116168 0.413221 0 
659 1 0.492311 -1.20401 0 
661 1 -0.900833 -1.33336 0 
663 1 0.632979 -0.440841 0 
665 1 -0.465598 0.0860777 0 
667 1 -0.637281 0.38095 0 
669 1 0.513292 -0.716031 0 
671 1 -1.17862 0.514174 0 
673 1 0.533114 -0.3538 0 
675 1 0.637598 0.66309 0 
676 1 0.888165 -0.136155 0 
677 1 0.441167 1.35945 0 
678 1 -0.76175 1.38764 0 
679 1 -1.49791 -3.00388 0 
680 1 1.17583 2.17639 0 
681 1 0.146079 1.11807 0 
682 1 0.443878 -1.27761 0 
683 1 -0.505718 1.90776 0 
684 1 -0.553938 0.293763 0 
685 1 -0.0753936 -0.31413 0 
686 1 -0.560413 -0.271562 0 
687 1 0.118653 0.0839773 0 
689 1 0.397887 1.46109 0 
691 1 -0.32716 -0.279491 0 
693 1 0.490835 0.0106742 0 
695 1 0.264058 1.30929 0 
697 1 -0.492405 0.158467 0 
699 1 0.418047 -0.344348 0 
701 1 -0.925448 -1.32018 0 
703 1 0.534824 -0.467695 0 
705 1 0.267928 0.174453 0 
707 1 0.0837616 0.764155 0 
709 1 -0.0365053 -0.29311 0 
711 1 -0.0554926 0.794633 0 
713 1 -0.216051 -1.15942 0 
715 1 0.36228 0.337385 0 
717 1 0.222559 -0.00390042 0 
719 1 0.0519621 0.380632 0 
642 1 0.162733 -0.941133 0 
721 1 -0.337405 0.337534 0 
723 1 -0.198467 0.500868 0 
644 1 0.601423 -0.98247 0 
725 1 0.154942 0.331463 0 
646 1 -0.842194 0.304933 0 
648 1 0.110704 -0.0915341 0 
727 1 -0.0184068 -0.559369 0 
650 1 0.389088 -0.580445 0 
729 1 -0.477461 0.371151 0 
731 1 0.585881 0.285547 0 
652 1 -0.452345 0.33046 0 
733 1 -0.124767 -0.233358 0 
654 1 0.685448 0.480533 0 
656 1 -0.371833 0.350442 0 
735 1 -0.579294 -1.02765 0 
658 1 0.565164 -0.421825 0 
737 1 -0.0315315 0.707898 0 
660 1 -0.744709 1.13732 0 
739 1 -0.179479 -0.735446 0 
741 1 0.354741 -0.152436 0 
662 1 0.709471 0.926914 0 
743 1 -0.521268 0.181633 0 
664 1 -0.400544 0.354893 0 
666 1 1.34265 0.812117 0 
745 1 -0.0385782 -0.0343871 0 
668 1 -0.801514 -0.0311756 0 
747 1 -0.526669 -1.44117 0 
670 1 1.1218 0.418551 0 
749 1 -0.173313 -0.723997 0 
751 1 -0.225403 -0.931894 0 
672 1 0.292204 -0.586259 0 
753 1 -0.393126 0.585391 0 
674 1 -1.04756 0.139864 0 
755 1 -0.373305 -1.3162 0 
757 1 0.228017 -1.17986 0 
759 1 -1.0428 -2.25255 0 
761 1 -0.5056 0.297435 0 
763 1 1.91886 -1.40621 0 
765 1 -0.994287 0.132297 0 
688 1 0.535917 0.0494722 0 
767 1 1.51703 0.687139 0 
690 1 -0.385191 0.434962 0 
769 1 -0.87015 0.466222 0 
692 1 0.117773 0.0494879 0 
771 1 -0.172938 -1.17817 0 
773 1 -0.619383 0.0872232 0 
694 1 0.696712 -0.636349 0 
775 1 0.763321 -1.14166 0 
696 1 -0.716713 -0.456534 0 
698 1 0.296273 0.622062 0 
777 1 0.337921 0.322271 0 
700 1 0.0304275 0.603077 0 
779 1 -0.765695 0.188708 0 
702 1 0.232555 1.03902 0 
781 1 -0.0222134 -1.09164 0 
783 1 -0.400486 0.388794 0 
704 1 0.526451 0.675743 0 
785 1 0.559387 -0.970331 0 
706 1 -0.625555 -0.73958 0 
708 1 0.928258 -0.741322 0 
787 1 -0.843728 0.769985 0 
710 1 -0.516829 0.72302 0 
789 1 0.0333443 -0.620349 0 
712 1 0.497533 -0.695515 0 
791 1 -0.835853 -0.0510254 0 
793 1 0.914931 0.048187 0 
714 1 -0.344358 1.00137 0 
795 1 -0.178102 0.669403 0 
716 1 -0.0751557 -0.881265 0 
718 1 0.243219 0.351562 0 
797 1 -0.123322 0.0277115 0 
720 1 -0.533346 -0.0584359 0 
799 1 -0.570689 -0.853215 0 
722 1 0.144643 -0.369162 0 
724 1 -0.142564 -0.725297 0 
726 1 0.128422 0.643207 0 
728 1 0.397207 0.790218 0 
730 1 -0.160007 -0.594552 0 
732 1 -0.477627 -0.263303 0 
734 1 0.318495 -0.510611 0 
736 1 0.626442 0.949025 0 
738 1 -0.562523 -0.017484 0 
740 1 0.247048 -0.226054 0 
742 1 0.338481 -0.647831 0 
744 1 0.0719844 0.062747 0 
746 1 -0.477438 0.643026 0 
748 1 -0.0190115 1.3444 0 
750 1 -0.498058 0.399139 0 
752 1 1.34376 -0.371488 0 
754 1 -1.42034 0.720599 0 
756 1 1.49086 1.0266 0 
818 1 -0.178284 0.306153 0 
758 1 -0.604048 -0.068327 0 
819 1 -0.756937 -1.0325 0 
760 1 1.91336 2.30223 0 
820 1 0.354155 -1.10291 0 
762 1 -2.06202 3.46143 0 
821 1 0.626892 -5.54678 0 
822 1 -0.0544601 -3.28145 0 
764 1 -0.606504 -0.405936 0 
823 1 0.850744 -0.297478 0 
766 1 -0.104161 0.800953 0 
768 1 0.18809 -1.06061 0 
824 1 -0.481632 -0.136684 0 
770 1 -0.678544 0.792679 0 
772 1 0.879124 0.232009 0 
774 1 -0.544752 0.789625 0 
776 1 0.145345 0.789151 0 
778 1 -0.252756 -0.609531 0 
780 1 0.224243 0.825669 0 
782 1 0.22959 -0.611379 0 
784 1 0.145624 0.443376 0 
786 1 0.0825014 0.403923 0 
788 1 0.215079 0.596573 0 
790 1 0.597399 -0.244249 0 
792 1 -0.652186 -0.186678 0 
794 1 0.216041 -0.89177 0 
796 1 -0.155258 -0.532241 0 
798 1 0.153523 -0.981232 0 
800 1 0.84396 0.171836 0 
801 1 -0.828746 0.0971891 0 
802 1 0.394949 0.12525 0 
803 1 0.129422 0.241231 0 
804 1 -0.0886293 -0.373547 0 
805 1 -0.458893 -0.0714837 0 
806 1 0.468116 -0.0374272 0 
807 1 -0.120029 0.72403 0 
808 1 0.539677 -0.218126 0 
809 1 -0.927785 -0.250647 0 
810 1 0.552164 0.125466 0 
811 1 0.117178 0.259668 0 
812 1 -0.383019 0.137397 0 
813 1 0.320755 -0.292512 0 
814 1 0.590248 -0.643136 0 
815 1 -0.580929 0.151938 0 
816 1 -0.145184 0.339292 0 
817 1 0.631111 -0.22245 0 
825 1 0.35742 0.166248 0 
826 1 -0.331273 -0.215749 0 
827 1 -0.169748 -0.121039 0 
828 1 0.527827 -0.252 0 
829 1 -0.248156 -0.00460844 0 
830 1 -0.203734 -0.148006 0 
831 1 0.170602 -0.136295 0 
832 1 -0.282823 0.398903 0 
833 1 -0.130901 -0.339117 0 
834 1 0.223087 -0.432583 0 
835 1 -0.550965 0.282395 0 
836 1 0.424455 -0.0570935 0 
837 1 -0.429679 0.567738 0 
838 1 0.362554 0.419708 0 
839 1 -0.216811 0.548653 0 
840 1 0.513165 0.701021 0 
ITEM: TIMESTEP
1
ITEM: NUMBER OF ATOMS
840
ITEM: BOX BOUNDS pp ss pp
0 45.3078
-1.09989 20.332
-0.283174 0.283174
ITEM: ATOMS id type fx fy fz 
1 2 0 0 0 
3 2 0 0 0 
5 2 0 0 0 
7 2 0 0 0 
9 2 0 0 0 
11 2 0 0 0 
13 2 0 0 0 
15 2 0 0 0 
17 2 0 0 0 
19 2 0 0 0 
21 2 0 0 0 
23 2 0 0 0 
25 2 0 0 0 
27 2 0 0 0 
29 2 0 0 0 
31 2 0 0 0 
33 2 0 0 0 
35 2 0 0 0 
37 2 0 0 0 
39 2 0 0 0 
41 2 0 0 0 
43 2 0 0 0 
45 2 0 0 0 
47 2 0 0 0 
49 2 0 0 0 
51 2 0 0 0 
53 2 0 0 0 
55 2 0 0 0 
57 2 0 0 0 
59 2 0 0 0 
61 2 0 0 0 
63 2 0 0 0 
65 2 0 0 0 
67 2 0 0 0 
69 2 0 0 0 
71 2 0 0 0 
73 2 0 0 0 
75 2 0 0 0 
77 2 0 0 0 
79 2 0 0 0 
2 2 0 0 0 
4 2 0 0 0 
6 2 0 0 0 
8 2 0 0 0 
10 2 0 0 0 
12 2 0 0 0 
14 2 0 0 0 
16 2 0 0 0 
18 2 0 0 0 
20 2 0 0 0 
22 2 0 0 0 
24 2 0 0 0 
26 2 0 0 0 
28 2 0 0 0 
30 2 0 0 0 
32 2 0 0 0 
34 2 0 0 0 
36 2 0 0 0 
38 2 0 0 0 
40 2 0 0 0 
42 2 0 0 0 
44 2 0 0 0 
46 2 0 0 0 
48 2 0 0 0 
50 2 0 0 0 
52 2 0 0 0 
54 2 0 0 0 
56 2 0 0 0 
58 2 0 0 0 
60 2 0 0 0 
62 2 0 0 0 
64 2 0 0 0 
66 2 0 0 0 
68 2 0 0 0 
70 2 0 0 0 
72 2 0 0 0 
74 2 0 0 0 
76 2 0 0 0 
78 2 0 0 0 
80 2 0 0 0 
81 2 0 0 0 
83 2 0 0 0 
82 1 -0.377443 -0.495129 0 
85 2 0 0 0 
84 1 -0.194432 -0.0107949 0 
87 2 0 0 0 
86 1 -0.17792 -0.439833 0 
88 1 -0.0046307 0.789218 0 
89 2 0 0 0 
90 1 0.715584 -0.58399 0 
91 2 0 0 0 
93 2 0 0 0 
92 1 -0.659821 0.496894 0 
95 2 0 0 0 
94 1 0.245893 -0.276387 0 
96 1 0.215315 -0.0891645 0 
97 2 0 0 0 
98 1 -0.254675 0.21496 0 
99 2 0 0 0 
100 1 0.336936 0.77651 0 
101 2 0 0 0 
103 2 0 0 0 
102 1 0.205466 0.639621 0 
105 2 0 0 0 
104 1 -0.012069 -0.125651 0 
106 1 -0.125898 -1.61315 0 
107 2 0 0 0 
108 1 0.231995 1.01153 0 
109 2 0 0 0 
110 1 0.185011 -0.0913698 0 
111 2 0 0 0 
113 2 0 0 0 
112 1 0.126783 -0.276183 0 
115 2 0 0 0 
114 1 -0.753675 -0.40455 0 
116 1 1.15915 -0.522946 0 
117 2 0 0 0 
118 1 -0.819491 -0.607234 0 
119 2 0 0 0 
120 1 1.00526 0.000895019 0 
121 2 0 0 0 
123 2 0 0 0 
122 1 -0.249801 1.19667 0 
125 2 0 0 0 
124 1 0.0553609 -1.15123 0 
127 2 0 0 0 
126 1 0.389961 0.259119 0 
128 1 -0.370481 1.1277 0 
129 2 0 0 0 
130 1 0.247399 0.0331519 0 
131 2 0 0 0 
133 2 0 0 0 
132 1 1.07034 -1.40813 0 
135 2 0 0 0 
134 1 -0.183928 -0.354027 0 
137 2 0 0 0 
136 1 -0.486287 0.889363 0 
138 1 0.357959 -1.69567 0 
139 2 0 0 0 
140 1 -0.28684 0.680151 0 
141 2 0 0 0 
143 2 0 0 0 
142 1 -0.81972 -1.07486 0 
145 2 0 0 0 
144 1 0.723938 -1.28045 0 
147 2 0 0 0 
146 1 0.693933 -0.488874 0 
148 1 -1.0875 0.0340362 0 
149 2 0 0 0 
150 1 0.699056 -0.216295 0 
151 2 0 0 0 
153 2 0 0 0 
152 1 -0.342386 0.491105 0 
155 2 0 0 0 
154 1 0.119846 -0.242344 0 
157 2 0 0 0 
156 1 -0.622236 0.861466 0 
158 1 -0.795883 -0.459396 0 
159 2 0 0 0 
160 1 1.27648 -0.126214 0 
161 1 0.0231694 -0.0130633 0 
163 1 -0.294155 0.788165 0 
165 1 0.27915 0.0811079 0 
167 1 0.189586 -0.0851982 0 
169 1 -0.177826 0.994226 0 
171 1 0.382435 -1.04695 0 
173 1 0.801086 0.318023 0 
175 1 -0.899644 -0.206653 0 
177 1 0.353812 -1.08442 0 
179 1 -0.155948 0.129923 0 
181 1 -0.616256 0.0354482 0 
183 1 -0.327164 -0.723867 0 
185 1 -0.331086 1.2747 0 
187 1 0.526267 -1.39272 0 
189 1 0.339482 0.203106 0 
191 1 -0.663447 0.220719 0 
193 1 0.559014 0.427872 0 
195 1 -0.504675 0.786651 0 
197 1 -0.412568 -0.955971 0 
199 1 0.604835 0.444586 0 
201 1 -0.840662 -0.632728 0 
203 1 -0.206537 -0.782442 0 
205 1 0.944542 0.845401 0 
207 1 0.334296 -0.279204 0 
209 1 -0.244766 -0.677066 0 
211 1 -0.74915 0.913568 0 
213 1 -0.511943 -1.11166 0 
215 1 1.53411 -1.19258 0 
217 1 -1.69769 1.60793 0 
219 1 1.23584 -0.216299 0 
221 1 0.0445224 -0.100461 0 
223 1 0.616764 1.53134 0 
225 1 -0.272506 0.523635 0 
227 1 0.537734 0.354215 0 
229 1 0.294348 0.500726 0 
231 1 -0.665197 -0.127845 0 
233 1 -0.48164 -1.18817 0 
235 1 1.00212 -0.0338372 0 
237 1 -0.140845 -0.100341 0 
239 1 -0.0529217 1.06709 0 
162 1 -0.685551 -0.722624 0 
241 1 -0.0839131 0.518129 0 
243 1 0.699463 -0.0646812 0 
164 1 0.649881 0.357013 0 
166 1 -0.220623 0.613244 0 
245 1 0.172529 0.246548 0 
168 1 0.389989 -1.3814 0 
247 1 -1.49453 0.122251 0 
170 1 -0.60998 -0.0964304 0 
249 1 1.13125 0.481217 0 
251 1 0.45785 0.873346 0 
172 1 -0.157912 0.223256 0 
253 1 -0.654244 0.834953 0 
174 1 -0.20133 -1.08105 0 
176 1 -0.865318 -0.237842 0 
255 1 -0.502714 0.41166 0 
178 1 1.3659 0.923852 0 
257 1 0.798187 0.455657 0 
180 1 -0.408144 0.609513 0 
259 1 -0.199674 -0.815709 0 
261 1 0.0812779 -1.21478 0 
182 1 0.3149 0.470931 0 
263 1 0.0838526 -0.475343 0 
184 1 0.529895 0.557129 0 
186 1 -1.19838 0.529262 0 
265 1 0.353401 0.0406814 0 
188 1 0.795531 0.668207 0 
267 1 -0.178062 0.149467 0 
190 1 0.00645697 -1.66229 0 
269 1 -0.245068 0.509477 0 
271 1 0.616487 1.4398 0 
192 1 -0.580385 -0.945178 0 
273 1 -0.0564587 1.26923 0 
194 1 0.273204 -0.0345276 0 
196 1 -0.133316 -0.919065 0 
275 1 -0.312816 0.616387 0 
198 1 0.641377 0.0676141 0 
277 1 -0.132139 0.7051 0 
200 1 -0.0257866 0.62918 0 
279 1 0.68741 0.621318 0 
202 1 0.228866 -0.326382 0 
281 1 -0.741699 -0.541793 0 
283 1 0.598204 -0.185999 0 
204 1 -0.209398 0.394447 0 
285 1 0.00329007 -0.212385 0 
206 1 -1.07688 -0.281261 0 
208 1 0.438941 -1.10319 0 
287 1 0.436837 0.901075 0 
210 1 -0.0360647 -0.627379 0 
289 1 -0.730447 1.00339 0 
212 1 -0.0900217 0.887013 0 
291 1 0.642131 0.520141 0 
293 1 0.488182 -1.48803 0 
214 1 -1.10985 1.7641 0 
295 1 -1.18276 1.6401 0 
216 1 1.29875 -2.06214 0 
218 1 0.15865 0.705907 0 
297 1 0.985637 0.673607 0 
220 1 -0.374365 0.774039 0 
299 1 -0.765111 -0.949314 0 
222 1 -0.720363 -0.156555 0 
301 1 0.549339 -0.968546 0 
303 1 -0.420867 1.08125 0 
224 1 0.00527608 -1.32297 0 
305 1 0.442355 -0.0394976 0 
226 1 -0.40622 -0.584975 0 
228 1 -0.762478 0.383508 0 
307 1 0.835078 -1.1199 0 
230 1 0.858911 -0.436517 0 
309 1 -0.611126 0.0741379 0 
232 1 0.0587187 0.85082 0 
311 1 -0.160106 -0.922684 0 
313 1 0.80201 -0.183929 0 
234 1 -0.0156806 1.1198 0 
315 1 -1.06342 -0.654543 0 
236 1 -0.107723 -1.01889 0 
238 1 -0.468405 -0.713696 0 
317 1 0.919897 0.649421 0 
240 1 0.138292 -0.635868 0 
319 1 -0.350863 1.19983 0 
242 1 -1.19018 -0.572976 0 
244 1 0.702834 -0.858176 0 
246 1 -0.250828 -0.840348 0 
248 1 -0.204339 0.443019 0 
250 1 0.679425 -1.03414 0 
252 1 -0.58468 -0.100259 0 
254 1 0.994322 -0.32806 0 
256 1 -0.658782 0.0845794 0 
258 1 -0.175027 0.0530437 0 
260 1 -0.841018 0.0278248 0 
262 1 0.887795 -0.301129 0 
264 1 0.469456 0.552957 0 
266 1 -1.21904 -1.42683 0 
268 1 -0.569679 -0.0506951 0 
270 1 0.510408 -1.21947 0 
272 1 -0.0548807 -1.30729 0 
274 1 -0.285065 -0.806965 0 
276 1 -0.625454 -0.288754 0 
278 1 0.283958 -0.405863 0 
280 1 0.132173 -0.256408 0 
282 1 -1.04319 0.369954 0 
284 1 0.394496 0.988883 0 
286 1 0.712421 0.821296 0 
288 1 -0.755736 -0.9855 0 
290 1 0.68175 0.0879209 0 
292 1 -0.616241 -0.33324 0 
294 1 0.628908 -0.468106 0 
296 1 0.6985 -0.26159 0 
298 1 -1.07239 -0.744892 0 
300 1 0.596476 0.191697 0 
302 1 1.33359 -0.360469 0 
304 1 -0.952546 -0.0205645 0 
306 1 -0.570517 1.0894 0 
308 1 0.811369 0.927992 0 
310 1 -0.27618 1.17491 0 
312 1 -0.0273944 0.514832 0 
314 1 -0.800442 -0.706525 0 
316 1 1.3347 1.01036 0 
318 1 -0.565001 -0.643251 0 
320 1 0.827453 -1.03652 0 
321 1 0.56786 -0.222105 0 
322 1 0.252632 0.758813 0 
323 1 0.0333328 1.03051 0 
324 1 -0.45866 -0.391791 0 