LAMMPS data file from restart file: timestep = 7, procs = 1

840 atoms

2 atom types

0.0000000000000000e+00 4.5307846529256608e+01 xlo xhi
-1000 10000 ylo yhi
-2.8317404080785380e-01 2.8317404080785380e-01 zlo zhi

Masses

1 1
2 1

Pair Coeffs

1 1 1
2 1 1

Atoms

1 2 0.00964453709827 0.00913778691316 0.000314043745048
3 2 1.13489060332 0.00420612560478 0.00226585008115
5 2 2.26622731887 0.00991553227784 0.00612781611987
7 2 3.40241768834 0.00834210028857 0.00952053928692
9 2 4.53241045925 0.0085616067709 0.00619067204581
11 2 5.67095188335 0.00796703224841 0.000168631218754
13 2 6.80410400141 0.00265692752558 0.00395891448721
15 2 7.93255204867 0.00962644277905 0.00371631472732
17 2 9.06188486058 0.00365465228499 0.00358409362419
19 2 10.1967624777 0.00261096887372 0.00212160056561
21 2 11.3367077229 0.00301001772437 0.00151380210497
23 2 12.4640112343 0.00795623192706 0.00473092777558
25 2 13.5987120956 0.00320257084572 0.00993504329929
27 2 14.7321371673 0.00665216096221 0.000574609200666
29 2 15.8605017463 0.00372444615131 0.0089661333759
31 2 16.9934301203 0.00410383666335 0.002399823794
33 2 18.1304158625 0.000114654182131 0.00267472428792
35 2 19.2562320359 0.0023535190093 0.00703195573383
37 2 20.392198476 0.00334669469721 0.0077877898442
39 2 21.5219411631 0.00239790846929 0.00483520548051
41 2 22.6586507177 0.0035384599897 0.00487397654511
43 2 23.7921592958 0.00884854535763 0.00592343866883
45 2 24.9225469386 0.00065562419492 0.00792329346092
47 2 26.0608447246 0.00760769614434 0.00499266445465
49 2 27.1866455277 0.00845348014462 0.000466909288371
51 2 28.3238194923 0.00498209959085 0.00267140451328
53 2 29.4534359519 0.00991490777391 0.00204862013608
55 2 30.5923860125 0.00964004881287 0.00449516965741
57 2 31.7238204619 0.00415546940434 0.00609054089559
59 2 32.8572236272 0.00742546251852 0.00856886847408
61 2 33.9892344969 0.00136839522785 0.00186646221266
63 2 35.1151380752 0.00726234681773 0.00931907023614
65 2 36.2479580945 0.00408580359506 0.00180631682431
67 2 37.3878309205 0.00610459668393 0.00731864905625
69 2 38.5139124961 0.00686260348532 0.00775273728374
71 2 39.6510796342 0.00896499666438 0.00374339014752
73 2 40.7844105968 0.00147455306734 0.0046252900328
75 2 41.9157875787 0.00120091881475 0.00789846935212
77 2 43.0508735452 0.000215781727969 0.00608183413504
79 2 44.1770963896 0.00161410059136 0.00630135080161
2 2 0.575179161767 0.985751473467 0.00039511175821
4 2 1.70011277537 0.982724577985 0.00435108227845
6 2 2.83856600957 0.985892106486 0.00283042477627
8 2 3.97379122226 0.983778101346 0.00898360436331
10 2 5.10462483447 0.985493719717 0.00949039005352
12 2 6.23455655422 0.987339274379 0.00484447656011
14 2 7.36317628648 0.990849724872 0.00613729932113
16 2 8.49531451123 0.980970479047 0.00584764391126
18 2 9.63371418145 0.9892976729 0.00535656615337
20 2 10.769174574 0.987556568305 0.00256255816867
22 2 11.8991841201 0.981974175502 0.0067767558005
24 2 13.0286213442 0.982253012586 0.0039724334817
26 2 14.1626156479 0.986973643142 0.00414458326857
28 2 15.2941732323 0.988342350654 0.00603544208353
30 2 16.4275828834 0.990840136378 0.00295393357434
32 2 17.5590298347 0.981083919385 0.00435511414954
34 2 18.6947855546 0.983504951403 0.00877324718379
36 2 19.822485368 0.984264124205 0.00595058152094
38 2 20.9614206083 0.988709899278 0.00546434919981
40 2 22.0956137375 0.98242880735 0.00259336370388
42 2 23.22435871 0.984767677448 0.00988611862212
44 2 24.3584371489 0.98969828343 0.00721948589348
46 2 25.4859394 0.990529404565 0.00742305118788
48 2 26.6189020568 0.986456467874 0.00684443283099
50 2 27.7555083031 0.988805583485 0.00699279013106
52 2 28.8924011747 0.988922517833 0.00808915353517
54 2 30.0181197925 0.986231354612 0.00156461095735
56 2 31.1517226882 0.988505642011 0.000108979552516
58 2 32.2898449187 0.985235466806 0.0064260671824
60 2 33.4238574513 0.985895100831 0.00788989680174
62 2 34.5492719603 0.988490939829 0.00678631375248
64 2 35.6883620867 0.985756566258 0.00371216838041
66 2 36.8225610015 0.982355436529 0.00419959461963
68 2 37.9497898016 0.990648892278 0.00922855871766
70 2 39.0786796681 0.983163024254 0.00305326477486
72 2 40.2133974285 0.984693827224 0.00654680299095
74 2 41.3443403643 0.987122799596 0.000511030060057
76 2 42.4816444746 0.982451235795 0.00882309134952
78 2 43.610884281 0.986432768234 0.00134751708141
80 2 44.7465904879 0.98391431972 0.00806040742763
81 2 0.00929643326942 1.96623443455 0.00365302985925
83 2 1.1399131832 1.96940310958 0.00494818774132
85 2 2.26679076275 1.96643409745 0.000428684897279
87 2 3.40267359619 1.96802977224 0.00727661496151
89 2 4.53915512986 1.97051555006 0.0060225862106
91 2 5.67002296293 1.96489069211 0.00890500846357
93 2 6.80078703274 1.96200862661 0.0051609978702
95 2 7.93349999076 1.96622645357 0.0076417013937
97 2 9.06496453352 1.96896139657 0.00953944053775
99 2 10.2002684142 1.96788737576 0.000844084267669
101 2 11.3278487526 1.96826066746 0.0032732560336
103 2 12.4651494369 1.97155614213 0.00533455143798
105 2 13.5929505979 1.96327982147 0.00681880534163
107 2 14.7277146834 1.96363953683 0.00344768697649
109 2 15.8634694967 1.96819962677 0.00819276783557
111 2 16.9976437745 1.96564454708 0.00976627861236
113 2 18.1278844736 1.9640975169 0.00581932109054
115 2 19.2638653692 1.96799802619 0.00301782109391
117 2 20.3964242591 1.96588849647 0.00944399177402
119 2 21.5282244329 1.96206256141 7.46304551202e-05
121 2 22.6614334445 1.96342696108 0.0050239399722
123 2 23.7906896315 1.96901684446 0.0018704229846
125 2 24.9265984838 1.96196714428 0.00464147051092
127 2 26.0595331984 1.96325067406 0.00592898667965
129 2 27.1893242729 1.97123490812 0.00743233896484
131 2 28.3252328875 1.96224004509 0.009344630471
133 2 29.4542264604 1.9620372971 0.00606492498369
135 2 30.5923433719 1.9707807558 0.000542741344211
137 2 31.7235315398 1.9663446883 0.00320525956794
139 2 32.8518908261 1.96406541324 0.000722371699207
141 2 33.985368893 1.96483077424 0.00723214241933
143 2 35.116686054 1.96263512718 0.00778086208152
145 2 36.2550000022 1.9695251688 0.0052598462803
147 2 37.3839673465 1.96257644409 0.00143789260099
149 2 38.5155695343 1.96520524062 0.00131318901251
151 2 39.6478538615 1.96255162601 0.00884559655034
153 2 40.7771515605 1.96417014926 0.00745633741935
155 2 41.9145819428 1.96873178143 0.00245968344555
157 2 43.0440208068 1.97030484205 0.000201328854615
159 2 44.1806979449 1.97029847619 0.00954705910049
82 1 0.571812197768 2.92542058912 0.000866826206353
84 1 1.70454453527 2.92260396814 0.00146362385379
86 1 2.83335174506 2.92468929962 0.00236795393422
88 1 3.96268233044 2.91786512879 0.00531688815467
90 1 5.09375860264 2.92590580978 0.00833306940484
92 1 6.22867588264 2.91815832116 0.00347871210616
94 1 7.35566102627 2.92252367334 0.000126063396215
96 1 8.48597526127 2.92131451063 0.00712240326429
98 1 9.61917337026 2.91840916509 0.0020396076503
100 1 10.7492262886 2.91407221224 0.00606320656103
102 1 11.8826785544 2.91279251697 0.000881637774921
104 1 13.0162071986 2.91544154008 0.00875278154312
106 1 14.1492039177 2.91803383794 0.000554083635129
108 1 15.2788721951 2.90828006979 0.00535031126116
110 1 16.4167148627 2.91432265272 0.00615634508494
112 1 17.5516795112 2.91217427768 0.00158873218205
114 1 18.6905874759 2.91347282985 0.00374983157911
116 1 19.8196993473 2.91568163376 0.00318518562015
118 1 20.9594705306 2.91436222987 0.00361980755766
120 1 22.0869833596 2.91184392816 0.00508197308783
122 1 23.2260775862 2.90823641367 0.00805750326831
124 1 24.3587598239 2.91613151035 0.0070335271784
126 1 25.4931552769 2.90814719485 0.00594468446987
128 1 26.6313358687 2.90954159774 0.000974165344729
130 1 27.764861907 2.91265167489 0.00583546592472
132 1 28.8972785522 2.91624191156 0.00198252253932
134 1 30.0344425636 2.91396881981 0.00964897038317
136 1 31.1723782995 2.91171499454 0.0067726858166
138 1 32.3037249345 2.9186773335 0.007751375445
140 1 33.4359987017 2.91206131608 0.00458215382969
142 1 34.5695438263 2.91946114406 0.000123030312449
144 1 35.693278886 2.92287716116 0.00161717468584
146 1 36.8250741909 2.92078107418 0.00190777935779
148 1 37.9638028206 2.91750424969 0.0022437122907
150 1 39.0899924597 2.91965628716 0.000131651542886
152 1 40.2245096796 2.91878952187 0.00562212911921
154 1 41.3523701885 2.92295817526 0.00937103083439
156 1 42.4892217941 2.92202649084 0.00888366841217
158 1 43.6197923572 2.92710512562 0.00318272998388
160 1 44.7434179658 2.92363940037 0.00355005759562
161 1 0.00643179296021 3.88145478644 0.000207427580488
162 1 0.573918569078 4.84061158237 0.00191303417096
163 1 1.13642826937 3.87515579809 0.00879428482577
164 1 1.69338352721 4.835199044 0.000204255112551
165 1 2.26234867363 3.87907541865 0.00905445108175
166 1 2.82588734086 4.83315325915 0.00777743401769
167 1 3.39377687097 3.87873541638 0.00989287638287
168 1 3.95262903863 4.83860685034 0.00129379339592
169 1 4.52146155198 3.87382376333 0.00126674648745
170 1 5.08431883739 4.83234518677 0.00343877333499
171 1 5.65154176725 3.88180310234 0.00557896952209
172 1 6.21577993979 4.83144339052 0.0041457189546
173 1 6.78021582952 3.875641765 0.00662470785589
174 1 7.34650941424 4.83383635872 0.00812093827024
175 1 7.91763949553 3.87730524878 0.00387851550898
176 1 8.47507993477 4.82906437038 0.00347553346612
177 1 9.04160915109 3.87466567503 8.43094611501e-05
178 1 9.59489539427 4.81909577723 0.00954589169741
179 1 10.1755380263 3.86669996128 0.00139462527536
180 1 10.7304959254 4.81482805673 0.00573470512151
181 1 11.3092736679 3.86181020951 0.00852120853276
182 1 11.8554518772 4.812945558 0.00909428415351
183 1 12.4378528706 3.8645148732 0.00593850650381
184 1 12.9878233917 4.80736768404 0.00369443450663
185 1 13.5703784696 3.85643536182 0.00579619273117
186 1 14.1262012207 4.80353385753 0.00522605508538
187 1 14.6999439457 3.86317007553 0.000997622813716
188 1 15.2541560746 4.79997191807 0.00467016096129
189 1 15.8347052877 3.85603490181 0.000886654319528
190 1 16.3928055403 4.80442104183 0.000141846015344
191 1 16.9773734325 3.85896887841 0.00102507739585
192 1 17.5365335304 4.80371060161 0.000831964672747
193 1 18.108700581 3.85421396079 0.00130780039759
194 1 18.6713261841 4.79696864551 0.00490552355266
195 1 19.2518359309 3.85590893538 0.00105575085305
196 1 19.8097978377 4.80427959688 0.00904672784427
197 1 20.3859740389 3.86168182316 0.00978381864322
198 1 20.9456686245 4.79968179356 0.0061312120094
199 1 21.5189774215 3.85649708003 0.00634349826451
200 1 22.0886698477 4.79737388202 0.00228227359999
201 1 22.6637963903 3.85749097986 0.00849880333206
202 1 23.2250613605 4.80342827544 0.00888245614882
203 1 23.7940190369 3.86169001218 0.000520207574402
204 1 24.3698659493 4.79788466027 0.00715743630976
205 1 24.9283909818 3.85265186829 0.00762088458667
206 1 25.5121973631 4.79810866329 0.00728850561158
207 1 26.0679278628 3.85475366834 0.00418411375641
208 1 26.6441720356 4.80320573595 0.00492309219262
209 1 27.2076368724 3.86068500764 0.00202895242077
210 1 27.7887883164 4.79824243168 0.00365608994403
211 1 28.3481560382 3.85374219391 0.000670737714423
212 1 28.9263157147 4.79701243691 0.000336475815593
213 1 29.4843752493 3.86122020316 0.0085515275202
214 1 30.0644959481 4.79860010032 0.00243784804054
215 1 30.6116662262 3.86066214806 0.00388297177029
216 1 31.1909829482 4.80903755166 0.00805281702978
217 1 31.7535791156 3.85624339619 0.00351622958172
218 1 32.325398954 4.80808809791 0.000147779481349
219 1 32.8771772675 3.86343347665 0.00330566871731
220 1 33.4610407999 4.81116436733 0.00431237249557
221 1 34.0113965898 3.86556052943 0.00634546888699
222 1 34.5932769669 4.82063403306 0.00504486694636
223 1 35.1394787377 3.8660728089 0.00797904562015
224 1 35.720440766 4.82798750411 0.007845582795
225 1 36.2732143398 3.87288591159 0.00770552970977
226 1 36.8519073636 4.83017555248 0.00564753818788
227 1 37.4004069926 3.8702525638 0.00371492425782
228 1 37.9799735388 4.82642884754 0.00976911916809
229 1 38.5323097909 3.87057371137 0.00270235210648
230 1 39.1012392749 4.83129683053 0.00257655234523
231 1 39.6670721893 3.87501121176 0.00889842467206
232 1 40.230950457 4.83037889823 0.0098555740552
233 1 40.7958900924 3.88260125943 0.004324874589
234 1 41.3628878892 4.83267426937 0.00827400259052
235 1 41.9201838341 3.87820304829 0.00146539184333
236 1 42.4911982889 4.84070223518 0.00776464035612
237 1 43.0539935286 3.8833687168 0.0073901552885
238 1 43.6245610739 4.83988134074 0.000231364994116
239 1 44.1853082179 3.87801750656 0.00318571348851
240 1 44.7518202285 4.83954189528 0.000583239615586
241 1 0.00553852919684 5.79747640797 0.0084806637061
242 1 0.571510962387 6.75864054266 0.00727089688269
243 1 1.12882481217 5.79815724802 0.00438356539357
244 1 1.69206885768 6.75566654966 0.00161025882818
245 1 2.2590470616 5.79327525289 7.15878140256e-05
246 1 2.82408689173 6.754447768 0.00290574559481
247 1 3.3925935431 5.79235991322 0.00906948185846
248 1 3.9504781263 6.7461532858 0.00434860953235
249 1 4.51153445863 5.7883898145 0.00106479004227
250 1 5.07229778861 6.75064815554 0.00657418602152
251 1 5.640261101 5.78508338772 0.00393920131111
252 1 6.20418328113 6.74271781991 0.00012460494777
253 1 6.77678726787 5.78285495772 0.00761096087082
254 1 7.32686103647 6.74438308497 0.00875207950316
255 1 7.90445982285 5.78527794785 0.00419118447867
256 1 8.46146652101 6.73867271207 0.00293385317288
257 1 9.02539102392 5.77777037869 0.00366021796071
258 1 9.58529076733 6.72900175895 0.00956641738392
259 1 10.1552745976 5.77466694056 0.00225081406569
260 1 10.7144489006 6.72396136046 0.0063318461726
261 1 11.2812310503 5.77183654025 0.00448232557987
262 1 11.8357250861 6.71619028321 0.00259981191247
263 1 12.4100196881 5.76232805661 0.00885597002639
264 1 12.9668963683 6.70542389864 0.000921688099119
265 1 13.5431152165 5.75443204745 0.00751794715548
266 1 14.1042870462 6.70178245848 0.00417201931455
267 1 14.6782976597 5.74798990376 0.000123410348427
268 1 15.2371540201 6.68714822877 0.000453453486392
269 1 15.814253811 5.74145957021 0.000251241458435
270 1 16.3685444874 6.68743279806 0.00174685778581
271 1 16.9499531147 5.73915910451 0.00609936855471
272 1 17.510938275 6.68483600503 0.0017697308339
273 1 18.0954978542 5.7389854369 0.00179937934277
274 1 18.6565278091 6.68410202852 0.00331381539905
275 1 19.2351498103 5.74029790053 0.00767548738564
276 1 19.8004401381 6.68296624356 0.00369237115164
277 1 20.3760593961 5.74053795176 0.00750319816976
278 1 20.9403977749 6.68393047834 0.00891743408541
279 1 21.5123215779 5.73847092088 0.00276616748774
280 1 22.0847557881 6.6821919993 0.00342807316326
281 1 22.6600535618 5.74601307034 0.00515684815196
282 1 23.2359196475 6.68262645498 0.0010464703776
283 1 23.7967493041 5.73934171036 0.000324139579301
284 1 24.3712137693 6.67641644927 0.00215393766357
285 1 24.9407758865 5.73820788309 0.000799465455403
286 1 25.5154175122 6.67596064977 0.00870352022787
287 1 26.0824293531 5.73944468329 0.00903734579055
288 1 26.6685386432 6.6825213084 0.00711153331198
289 1 27.2291407971 5.73531951653 0.00938888173168
290 1 27.8035840488 6.67901803731 0.000157785118435
291 1 28.3633590944 5.73775659631 0.000106467039758
292 1 28.946257269 6.68298684189 0.00747415756817
293 1 29.5027648869 5.74760482468 0.00377478128991
294 1 30.0822169382 6.68996034163 0.00409785098325
295 1 30.6424656234 5.74398829375 0.00138961680192
296 1 31.2137647557 6.69976169975 0.00486559323739
297 1 31.7688864572 5.75381253408 0.00704277679565
298 1 32.352175951 6.70983997959 0.00973981205393
299 1 32.9065482049 5.76333560382 0.00365135201881
300 1 33.4739928843 6.71515862746 0.00332084076985
301 1 34.0308996153 5.77127708832 0.00304270015315
302 1 34.6006154277 6.72446645221 0.00029641521331
303 1 35.1629664313 5.77280144661 0.0068215990377
304 1 35.7367659155 6.7321194495 0.00676123382836
305 1 36.288176646 5.77985627611 0.000416389356119
306 1 36.8632041055 6.73207475335 0.00218785376207
307 1 37.4162688467 5.78533605699 0.00811169973213
308 1 37.984804368 6.73737162702 0.00886934054492
309 1 38.5491888905 5.78552082059 0.00513726363371
310 1 39.1151273033 6.74224031076 0.00351778973281
311 1 39.675541304 5.79180702065 0.00675609998787
312 1 40.2426694948 6.74689624439 0.000986840292893
313 1 40.7990142373 5.7912492228 0.000833094511891
314 1 41.371683672 6.75421139636 0.00491620968429
315 1 41.9310305981 5.79552452433 0.00166613651863
316 1 42.4898486081 6.74779093325 0.0071141058853
317 1 43.054197589 5.79210290774 0.00242621777258
318 1 43.6230005826 6.75269882674 0.00420040001126
319 1 44.1878709146 5.79103816918 0.00510404014764
320 1 44.7443224903 6.75852308919 0.00972055499874
321 1 0.00100152117034 7.71320693828 1.96780801859e-05
322 1 0.567657732954 8.67015421045 0.00615413598049
323 1 1.13062537606 7.711020759 0.00952076574665
324 1 1.69629451518 8.67458448895 0.00375247220195
325 1 2.25491531418 7.70726855873 0.0039831800218
326 1 2.82098481101 8.66886393054 0.00575330925931
327 1 3.38933162611 7.70758384862 0.00510545181175
328 1 3.94867463759 8.66998087512 0.000995397119402
329 1 4.50799067857 7.7048480092 0.000333274810239
330 1 5.07294061863 8.66166893203 0.00646516077258
331 1 5.63416787654 7.70504100594 0.00349278337469
332 1 6.19594912941 8.65802936845 0.0017882885391
333 1 6.76261931514 7.70093552259 0.00199958132558
334 1 7.32645499376 8.65436351527 0.00698713600163
335 1 7.89263391431 7.69994170814 0.00368028453781
336 1 8.44929707076 8.65290224775 0.00614896220093
337 1 9.01577052188 7.69243628913 0.00187779187082
338 1 9.57887571082 8.64535588106 0.00424059125059
339 1 10.1390418095 7.67812796493 0.00152946205248
340 1 10.7042196522 8.6376129754 0.00215293386689
341 1 11.2729773263 7.6681616427 0.00250964632189
342 1 11.8263329597 8.61823156137 0.00832784904118
343 1 12.3941369607 7.66073955323 0.00740865982496
344 1 12.9503217628 8.61173182456 0.00862728624337
345 1 13.5238014998 7.65521435518 0.00905834500598
346 1 14.0806628594 8.59322690975 0.00249548508126
347 1 14.6515749248 7.63565908857 0.00728423503501
348 1 15.21794094 8.58170113552 0.00250977668703
349 1 15.7886410847 7.62464801764 0.00127769158995
350 1 16.3461333829 8.56087167003 0.00167593948046
351 1 16.9280702365 7.62218760654 0.00370584209012
352 1 17.4860162584 8.55836617612 0.00463165703631
353 1 18.0705798958 7.61974665135 0.000646649495823
354 1 18.631673941 8.55893410192 0.00924854383292
355 1 19.2132349408 7.62285554364 0.00390141170652
356 1 19.7847516693 8.55651348055 0.00818446090658
357 1 20.3616837904 7.62000921693 0.00154170590285
358 1 20.9318673974 8.55620642729 0.00504267229968
359 1 21.5135827401 7.62015269168 0.00554143933441
360 1 22.0796925529 8.55493411958 0.0050385116565
361 1 22.6554136266 7.62345660746 0.00541810224739
362 1 23.2315734801 8.55159975048 0.00927695756645
363 1 23.8016284509 7.62201289797 0.00968211526563
364 1 24.3886650051 8.55407879409 0.00649396735228
365 1 24.9545591542 7.61708497474 0.00108503264051
366 1 25.5370813847 8.55591161986 0.0054219880039
367 1 26.1020963792 7.61985394115 0.00667570630362
368 1 26.6881011332 8.54964778853 0.00390371666332
369 1 27.2483778586 7.61917159273 0.0003451934552
370 1 27.8352525951 8.55165421444 0.00755825741881
371 1 28.391550028 7.62077732496 0.00173316495574
372 1 28.9733677264 8.56639247807 0.00804132646095
373 1 29.5234141068 7.62379743232 0.00587164523596
374 1 30.1080363083 8.57588708091 0.00888036005184
375 1 30.6616515137 7.64081688252 0.00405399723944
376 1 31.2348178492 8.59658211751 0.00143672068569
377 1 31.7961938994 7.65315618622 0.0084438460719
378 1 32.3605513511 8.60360591505 0.00060916387478
379 1 32.9243234946 7.66031152591 0.00801394804711
380 1 33.4874389825 8.61762178011 0.00495412101899
381 1 34.0508114732 7.66900206347 0.0053235375263
382 1 34.616775339 8.63065569341 0.00839740466299
383 1 35.1765974299 7.68614381407 0.00330854916785
384 1 35.7433496148 8.64169443135 0.00217310806313
385 1 36.3022741417 7.68758964374 0.00178785897469
386 1 36.8647307905 8.6479364364 0.00237357091375
387 1 37.4275730306 7.69644936762 0.00433938276148
388 1 37.9898808767 8.6610784559 0.00262808104254
389 1 38.553975745 7.70524877964 0.00314465312167
390 1 39.117810449 8.65994814755 0.00401094437125
391 1 39.6836572608 7.70741453615 0.00598354810788
392 1 40.2480069481 8.66745942285 0.00780170052361
393 1 40.8074245472 7.70662281156 0.00421133154951
394 1 41.3670595282 8.67060797254 0.00279554476713
395 1 41.9365278775 7.71078173029 0.00983396018603
396 1 42.4963685227 8.67127982233 0.00535429725493
397 1 43.063480402 7.71040320711 0.000575535968965
398 1 43.6213317439 8.66748589569 0.00525129497075
399 1 44.184002172 7.71234557736 0.00945770486883
400 1 44.7532140624 8.669399346 0.0013169653859
401 1 0.00175737076208 9.63733003578 0.00829506689182
402 1 0.566430128733 10.5940163937 0.00553782156335
403 1 1.12827573637 9.63693203319 0.00449440680064
404 1 1.69665581676 10.5919995922 0.00380701477175
405 1 2.25621054537 9.63313281382 0.00774303602021
406 1 2.81939374904 10.585549865 0.00917227403445
407 1 3.38626860992 9.62559410026 0.00444587164448
408 1 3.95171902364 10.5829126563 0.0042385865808
409 1 4.51219968903 9.62414854424 0.00062466612684
410 1 5.07332164565 10.5795971709 0.00910303189607
411 1 5.63752960101 9.62236223061 0.0046430461626
412 1 6.19630178889 10.5829315723 0.00118668411327
413 1 6.76655872513 9.6140318845 0.00392147979772
414 1 7.32315407347 10.5702478782 0.00128917797424
415 1 7.89139052602 9.60980555553 0.00763267601428
416 1 8.44916969898 10.5638922045 0.00338809718466
417 1 9.01487303501 9.60765783632 0.00416978098627
418 1 9.57850466075 10.5545187386 0.00309447903742
419 1 10.1420226205 9.59032644493 0.000286969956269
420 1 10.6988753584 10.5453413718 0.00942706201173
421 1 11.2641096199 9.58253918705 0.00897147142719
422 1 11.820338491 10.5296580217 0.00415927439108
423 1 12.392996703 9.57209249246 0.000959315344067
424 1 12.951002876 10.5141952663 0.00840851657303
425 1 13.5104854295 9.5568321626 0.00367880448285
426 1 14.0781724505 10.4970075461 0.00480527896439
427 1 14.640566427 9.53069859017 0.00805416456346
428 1 15.1992376318 10.4749097668 0.00218595373648
429 1 15.7687657432 9.51457959102 0.00310201181467
430 1 16.3242160562 10.4540522282 0.00931745431801
431 1 16.9073383768 9.50356484045 0.000929169183186
432 1 17.4662623829 10.4325172798 0.00915911560925
433 1 18.0482896969 9.48466574238 0.00626718355653
434 1 18.6094295766 10.4135210006 0.00255486690768
435 1 19.2003129831 9.48859090659 0.000659125708643
436 1 19.7655709793 10.4219883467 0.0006607349025
437 1 20.346559807 9.48585168313 0.00358507222011
438 1 20.9225382167 10.4265120122 0.00205385515401
439 1 21.5001299541 9.48802927741 0.0020970497068
440 1 22.083869027 10.420253049 0.00795115601435
441 1 22.6587641795 9.49310690266 0.00790109683948
442 1 23.2336108094 10.4278499471 0.0083265586545
443 1 23.8118811246 9.48768876195 0.00162964923755
444 1 24.3924301437 10.4269012493 0.00986193645494
445 1 24.966750588 9.4843526397 0.00248349621406
446 1 25.5550198021 10.4214639853 0.00868684581378
447 1 26.1171767199 9.48927448671 0.00741726379452
448 1 26.7078989484 10.4182398555 0.00112478184532
449 1 27.2671944168 9.48384823657 0.00968676075964
450 1 27.8517583982 10.432242034 0.00412480948896
451 1 28.4156908295 9.49604630552 0.00507069266573
452 1 28.9880052936 10.447336257 0.00902720951036
453 1 29.5486141896 9.51430331813 0.00398819318203
454 1 30.1179559033 10.4707310504 0.008650590935
455 1 30.6749022636 9.53642486482 0.00833650813741
456 1 31.2411787268 10.4932825794 0.00852303977944
457 1 31.805419946 9.55709871713 0.00431469332117
458 1 32.3699628788 10.5176317537 0.00137000003783
459 1 32.9263213625 9.56507587215 0.00537995540319
460 1 33.4939709869 10.5358175666 0.00588652081096
461 1 34.0589223629 9.58258395372 0.00574388349039
462 1 34.6190865463 10.5427496922 0.000919720441885
463 1 35.1758666572 9.59456732379 0.00890757008866
464 1 35.7412552015 10.5553293623 0.00367415350857
465 1 36.3016360599 9.60285486477 0.00961216241823
466 1 36.8694382181 10.5712818307 0.00562587434067
467 1 37.4290108772 9.61558711425 0.00168822205451
468 1 37.9953420131 10.5780990042 0.00502890488184
469 1 38.5599535999 9.6200020787 0.00619215885181
470 1 39.1152432644 10.5811743789 0.00272079415311
471 1 39.6829005088 9.62066596951 0.00742502750963
472 1 40.2469462396 10.5840688012 0.00979814287609
473 1 40.8051752108 9.62260055305 0.00284913042776
474 1 41.3703694196 10.5906645727 0.00296648114635
475 1 41.9363268646 9.63388634903 0.00647613097276
476 1 42.4981330263 10.5915403427 0.00971950852631
477 1 43.0567770163 9.63470988656 0.000665714532895
478 1 43.6225995124 10.5912525553 0.000661124626194
479 1 44.1899958204 9.63386007567 0.00341983319547
480 1 44.7454121706 10.5881140063 0.0065582121535
481 1 0.00742807156847 11.5483922404 0.005047571216
482 1 0.568579608695 12.5121601339 0.00517161896973
483 1 1.1283237868 11.5539235637 0.00772072796165
484 1 1.6972033738 12.5154696915 0.00230868546173
485 1 2.25842594803 11.5478024323 0.00536042120222
486 1 2.82742400062 12.5116717827 0.000595802117438
487 1 3.38679440394 11.5485933948 0.00267091988687
488 1 3.95148803514 12.5055401651 0.00962514131967
489 1 4.51311663929 11.5461674888 0.00174606000052
490 1 5.07368575219 12.5058078592 0.00127298106782
491 1 5.63609905233 11.5398142857 7.08903188048e-05
492 1 6.20443464085 12.4986422141 0.0047607417107
493 1 6.76352994191 11.534225725 0.00816043488724
494 1 7.32804969201 12.493554294 0.00512467761058
495 1 7.89081218507 11.5325604927 0.00388054937603
496 1 8.45204616792 12.486317037 0.00159844110967
497 1 9.0105153421 11.5182799594 0.00336026820775
498 1 9.57703747332 12.4693274347 0.000706723236818
499 1 10.1384686869 11.5051572736 0.00182678252353
500 1 10.7069349594 12.4665814169 0.00153533865111
501 1 11.2633028017 11.493325726 0.00466443623613
502 1 11.8331731808 12.4438388104 0.00916430078929
503 1 12.3836916677 11.4843339023 0.00788942762752
504 1 12.9498717531 12.4312502161 0.00893234015288
505 1 13.5061270786 11.4602826962 0.00395624148231
506 1 14.0698145664 12.4071690926 0.00944953736006
507 1 14.6363208017 11.4364476634 0.000663530595481
508 1 15.2002789879 12.3739139816 0.00637354529423
509 1 15.7591525287 11.4132494422 0.0035155499977
510 1 16.320924318 12.3415511134 0.00809529861304
511 1 16.8835853091 11.3771377683 0.00486948206893
512 1 17.4463102246 12.3120509416 0.00767317680038
513 1 18.019252725 11.361449362 0.00608520819231
514 1 18.5787254511 12.284153652 0.00528095484004
515 1 19.1698564611 11.3410595748 0.00029694854607
516 1 19.7241456597 12.2618194198 0.00784845595001
517 1 20.3269324712 11.3527188053 0.00108444070304
518 1 20.9075015411 12.2795642484 0.00450151265647
519 1 21.4976677815 11.350947611 0.00521494626793
520 1 22.0763225405 12.2840643488 0.00953457785549
521 1 22.6575737601 11.355307661 0.00807834345637
522 1 23.2423981337 12.2762454902 0.0059919168282
523 1 23.822186188 11.3500735023 0.00638825910461
524 1 24.4102801035 12.2766448058 0.00224283862938
525 1 24.9911443149 11.3530935123 0.0052725394698
526 1 25.5964548101 12.262944696 0.00669175558215
527 1 26.1486092031 11.3465133036 0.00949336939444
528 1 26.7473583181 12.2764830811 0.00800760797434
529 1 27.2973449765 11.3576217523 0.00706497953825
530 1 27.8780413962 12.3126927097 0.00415114363315
531 1 28.4367231729 11.3823018902 0.000388975360344
532 1 28.9998710487 12.3479907218 0.00642729871189
533 1 29.5617617749 11.4149280348 0.00729513378338
534 1 30.1206700392 12.3807065543 0.00279221755241
535 1 30.6841985937 11.4383481379 0.00903656957466
536 1 31.2474609124 12.4063630359 0.00973533074627
537 1 31.8090483165 11.4576240918 0.00968584823284
538 1 32.3626134203 12.4270657422 0.00610331644724
539 1 32.9304496812 11.4748281941 0.00710055932191
540 1 33.4871567523 12.4431445017 0.00671034103553
541 1 34.0543351675 11.4989582527 0.00970830967679
542 1 34.6082717766 12.4594808919 0.00826407461897
543 1 35.1737393208 11.5125609578 0.00324665387971
544 1 35.7422966872 12.4719960057 0.0022412711376
545 1 36.3000832907 11.518988826 0.00910424939567
546 1 36.8653863667 12.4842896825 0.00120729180517
547 1 37.4284040088 11.5276220326 0.000333515337084
548 1 37.9853725458 12.49415705 0.00973907787142
549 1 38.549672861 11.5336970804 0.00709045947866
550 1 39.1180225496 12.5004251474 0.00902950425598
551 1 39.679118802 11.545252655 0.000295884197509
552 1 40.2406873632 12.5053866003 0.00564663291687
553 1 40.8085637191 11.5467651282 0.00066934468555
554 1 41.3708543373 12.5093305254 0.00735986612877
555 1 41.9275938253 11.5533315141 0.00484878492956
556 1 42.4924294615 12.5071711086 0.00855647510884
557 1 43.0607279153 11.5468729437 0.0077069867473
558 1 43.6180522407 12.5103156164 0.00582174207576
559 1 44.1903207897 11.5540044399 0.00426010130485
560 1 44.7521737309 12.5100644203 0.00491267461735
561 1 0.00456491583042 13.47564295 0.00665841987046
562 1 0.570541057415 14.4321754156 0.00620332386395
563 1 1.13520199966 13.470795585 0.00588253641851
564 1 1.70051222479 14.4331999909 0.000992061804159
565 1 2.26490170515 13.4738497328 0.00211198519731
566 1 2.82740172891 14.429179641 0.00747898094167
567 1 3.38337550936 13.4653064016 0.00580717047641
568 1 3.95790034893 14.4319336787 0.00474375590679
569 1 4.51861846163 13.4615429374 0.0018255395687
570 1 5.07847240209 14.4220906157 0.00164053739068
571 1 5.64722155854 13.4595184262 2.26787991432e-05
572 1 6.20760147733 14.4231803173 0.000787596451425