LAMMPS data file from restart file: timestep = 1, procs = 1

4000 atoms

2 atom types

-1.9930000000000000e+01 1.9930000000000000e+01 xlo xhi
-1.9930000000000000e+01 1.9930000000000000e+01 ylo yhi
-1.9930000000000000e+01 1.9930000000000000e+01 zlo zhi

Masses

1 26.982
2 26.982

Atoms

1 2 -1.9930000000000000e+01 -1.9930000000000000e+01 -1.9930000000000000e+01 0 0 0
2 2 -1.7937000000000001e+01 -1.7937000000000001e+01 -1.9930000000000000e+01 0 0 0
3 2 -1.7937000000000001e+01 -1.9930000000000000e+01 -1.7937000000000001e+01 0 0 0
4 2 -1.9930000000000000e+01 -1.7937000000000001e+01 -1.7937000000000001e+01 0 0 0
5 2 -1.5944000000000001e+01 -1.9930000000000000e+01 -1.9930000000000000e+01 0 0 0
8 1 -1.5944000000000001e+01 -1.7937000000000001e+01 -1.7937000000000001e+01 0 0 0
41 2 -1.9930000000000000e+01 -1.5944000000000001e+01 -1.9930000000000000e+01 0 0 0
43 1 -1.7937000000000001e+01 -1.5944000000000001e+01 -1.7937000000000001e+01 0 0 0
45 2 -1.5944000000000001e+01 -1.5944000000000001e+01 -1.9930000000000000e+01 0 0 0
401 2 -1.9930000000000000e+01 -1.9930000000000000e+01 -1.5944000000000001e+01 0 0 0
402 1 -1.7937000000000001e+01 -1.7937000000000001e+01 -1.5944000000000001e+01 0 0 0
405 2 -1.5944000000000001e+01 -1.9930000000000000e+01 -1.5944000000000001e+01 0 0 0
441 2 -1.9930000000000000e+01 -1.5944000000000001e+01 -1.5944000000000001e+01 0 0 0
445 1 -1.5944000000000001e+01 -1.5944000000000001e+01 -1.5944000000000001e+01 0 0 0
6 2 -1.3951000000000001e+01 -1.7937000000000001e+01 -1.9930000000000000e+01 0 0 0
7 2 -1.3951000000000001e+01 -1.9930000000000000e+01 -1.7937000000000001e+01 0 0 0
9 2 -1.1958000000000000e+01 -1.9930000000000000e+01 -1.9930000000000000e+01 0 0 0
12 1 -1.1958000000000000e+01 -1.7937000000000001e+01 -1.7937000000000001e+01 0 0 0
47 1 -1.3951000000000001e+01 -1.5944000000000001e+01 -1.7937000000000001e+01 0 0 0
49 2 -1.1958000000000000e+01 -1.5944000000000001e+01 -1.9930000000000000e+01 0 0 0
406 1 -1.3951000000000001e+01 -1.7937000000000001e+01 -1.5944000000000001e+01 0 0 0
409 2 -1.1958000000000000e+01 -1.9930000000000000e+01 -1.5944000000000001e+01 0 0 0
449 1 -1.1958000000000000e+01 -1.5944000000000001e+01 -1.5944000000000001e+01 0 0 0
10 2 -9.9649999999999999e+00 -1.7937000000000001e+01 -1.9930000000000000e+01 0 0 0
11 2 -9.9649999999999999e+00 -1.9930000000000000e+01 -1.7937000000000001e+01 0 0 0
13 2 -7.9720000000000004e+00 -1.9930000000000000e+01 -1.9930000000000000e+01 0 0 0
16 1 -7.9720000000000004e+00 -1.7937000000000001e+01 -1.7937000000000001e+01 0 0 0
51 1 -9.9649999999999999e+00 -1.5944000000000001e+01 -1.7937000000000001e+01 0 0 0
53 2 -7.9720000000000004e+00 -1.5944000000000001e+01 -1.9930000000000000e+01 0 0 0
410 1 -9.9649999999999999e+00 -1.7937000000000001e+01 -1.5944000000000001e+01 0 0 0
413 2 -7.9720000000000004e+00 -1.9930000000000000e+01 -1.5944000000000001e+01 0 0 0
453 1 -7.9720000000000004e+00 -1.5944000000000001e+01 -1.5944000000000001e+01 0 0 0
14 2 -5.9790000000000001e+00 -1.7937000000000001e+01 -1.9930000000000000e+01 0 0 0
15 2 -5.9790000000000001e+00 -1.9930000000000000e+01 -1.7937000000000001e+01 0 0 0
17 2 -3.9860000000000002e+00 -1.9930000000000000e+01 -1.9930000000000000e+01 0 0 0
20 1 -3.9860000000000002e+00 -1.7937000000000001e+01 -1.7937000000000001e+01 0 0 0
55 1 -5.9790000000000001e+00 -1.5944000000000001e+01 -1.7937000000000001e+01 0 0 0
57 2 -3.9860000000000002e+00 -1.5944000000000001e+01 -1.9930000000000000e+01 0 0 0
414 1 -5.9790000000000001e+00 -1.7937000000000001e+01 -1.5944000000000001e+01 0 0 0
417 2 -3.9860000000000002e+00 -1.9930000000000000e+01 -1.5944000000000001e+01 0 0 0
457 1 -3.9860000000000002e+00 -1.5944000000000001e+01 -1.5944000000000001e+01 0 0 0
18 2 -1.9930000000000001e+00 -1.7937000000000001e+01 -1.9930000000000000e+01 0 0 0
19 2 -1.9930000000000001e+00 -1.9930000000000000e+01 -1.7937000000000001e+01 0 0 0
21 2 0.0000000000000000e+00 -1.9930000000000000e+01 -1.9930000000000000e+01 0 0 0
22 2 1.9930000000000001e+00 -1.7937000000000001e+01 -1.9930000000000000e+01 0 0 0
23 2 1.9930000000000001e+00 -1.9930000000000000e+01 -1.7937000000000001e+01 0 0 0
24 1 0.0000000000000000e+00 -1.7937000000000001e+01 -1.7937000000000001e+01 0 0 0
59 1 -1.9930000000000001e+00 -1.5944000000000001e+01 -1.7937000000000001e+01 0 0 0
61 2 0.0000000000000000e+00 -1.5944000000000001e+01 -1.9930000000000000e+01 0 0 0
63 1 1.9930000000000001e+00 -1.5944000000000001e+01 -1.7937000000000001e+01 0 0 0
418 1 -1.9930000000000001e+00 -1.7937000000000001e+01 -1.5944000000000001e+01 0 0 0
421 2 0.0000000000000000e+00 -1.9930000000000000e+01 -1.5944000000000001e+01 0 0 0
422 1 1.9930000000000001e+00 -1.7937000000000001e+01 -1.5944000000000001e+01 0 0 0
461 1 0.0000000000000000e+00 -1.5944000000000001e+01 -1.5944000000000001e+01 0 0 0
25 2 3.9860000000000002e+00 -1.9930000000000000e+01 -1.9930000000000000e+01 0 0 0
26 2 5.9790000000000001e+00 -1.7937000000000001e+01 -1.9930000000000000e+01 0 0 0
27 2 5.9790000000000001e+00 -1.9930000000000000e+01 -1.7937000000000001e+01 0 0 0
28 1 3.9860000000000002e+00 -1.7937000000000001e+01 -1.7937000000000001e+01 0 0 0
65 2 3.9860000000000002e+00 -1.5944000000000001e+01 -1.9930000000000000e+01 0 0 0
67 1 5.9790000000000001e+00 -1.5944000000000001e+01 -1.7937000000000001e+01 0 0 0
425 2 3.9860000000000002e+00 -1.9930000000000000e+01 -1.5944000000000001e+01 0 0 0
426 1 5.9790000000000001e+00 -1.7937000000000001e+01 -1.5944000000000001e+01 0 0 0
465 1 3.9860000000000002e+00 -1.5944000000000001e+01 -1.5944000000000001e+01 0 0 0
29 2 7.9720000000000004e+00 -1.9930000000000000e+01 -1.9930000000000000e+01 0 0 0
30 2 9.9649999999999999e+00 -1.7937000000000001e+01 -1.9930000000000000e+01 0 0 0
31 2 9.9649999999999999e+00 -1.9930000000000000e+01 -1.7937000000000001e+01 0 0 0
32 1 7.9720000000000004e+00 -1.7937000000000001e+01 -1.7937000000000001e+01 0 0 0
69 2 7.9720000000000004e+00 -1.5944000000000001e+01 -1.9930000000000000e+01 0 0 0
71 1 9.9649999999999999e+00 -1.5944000000000001e+01 -1.7937000000000001e+01 0 0 0
429 2 7.9720000000000004e+00 -1.9930000000000000e+01 -1.5944000000000001e+01 0 0 0
430 1 9.9649999999999999e+00 -1.7937000000000001e+01 -1.5944000000000001e+01 0 0 0
469 1 7.9720000000000004e+00 -1.5944000000000001e+01 -1.5944000000000001e+01 0 0 0
33 2 1.1958000000000000e+01 -1.9930000000000000e+01 -1.9930000000000000e+01 0 0 0
34 2 1.3951000000000001e+01 -1.7937000000000001e+01 -1.9930000000000000e+01 0 0 0
35 2 1.3951000000000001e+01 -1.9930000000000000e+01 -1.7937000000000001e+01 0 0 0
36 1 1.1958000000000000e+01 -1.7937000000000001e+01 -1.7937000000000001e+01 0 0 0
73 2 1.1958000000000000e+01 -1.5944000000000001e+01 -1.9930000000000000e+01 0 0 0
75 1 1.3951000000000001e+01 -1.5944000000000001e+01 -1.7937000000000001e+01 0 0 0
433 2 1.1958000000000000e+01 -1.9930000000000000e+01 -1.5944000000000001e+01 0 0 0
434 1 1.3951000000000001e+01 -1.7937000000000001e+01 -1.5944000000000001e+01 0 0 0
473 1 1.1958000000000000e+01 -1.5944000000000001e+01 -1.5944000000000001e+01 0 0 0
37 2 1.5944000000000001e+01 -1.9930000000000000e+01 -1.9930000000000000e+01 0 0 0
38 2 1.7937000000000001e+01 -1.7937000000000001e+01 -1.9930000000000000e+01 0 0 0
39 2 1.7937000000000001e+01 -1.9930000000000000e+01 -1.7937000000000001e+01 0 0 0
40 1 1.5944000000000001e+01 -1.7937000000000001e+01 -1.7937000000000001e+01 0 0 0
77 2 1.5944000000000001e+01 -1.5944000000000001e+01 -1.9930000000000000e+01 0 0 0
79 1 1.7937000000000001e+01 -1.5944000000000001e+01 -1.7937000000000001e+01 0 0 0
437 2 1.5944000000000001e+01 -1.9930000000000000e+01 -1.5944000000000001e+01 0 0 0
438 1 1.7937000000000001e+01 -1.7937000000000001e+01 -1.5944000000000001e+01 0 0 0
477 1 1.5944000000000001e+01 -1.5944000000000001e+01 -1.5944000000000001e+01 0 0 0
42 2 -1.7937000000000001e+01 -1.3951000000000001e+01 -1.9930000000000000e+01 0 0 0
44 2 -1.9930000000000000e+01 -1.3951000000000001e+01 -1.7937000000000001e+01 0 0 0
48 1 -1.5944000000000001e+01 -1.3951000000000001e+01 -1.7937000000000001e+01 0 0 0
81 2 -1.9930000000000000e+01 -1.1958000000000000e+01 -1.9930000000000000e+01 0 0 0
83 1 -1.7937000000000001e+01 -1.1958000000000000e+01 -1.7937000000000001e+01 0 0 0
85 2 -1.5944000000000001e+01 -1.1958000000000000e+01 -1.9930000000000000e+01 0 0 0
442 1 -1.7937000000000001e+01 -1.3951000000000001e+01 -1.5944000000000001e+01 0 0 0
481 2 -1.9930000000000000e+01 -1.1958000000000000e+01 -1.5944000000000001e+01 0 0 0
485 1 -1.5944000000000001e+01 -1.1958000000000000e+01 -1.5944000000000001e+01 0 0 0
46 2 -1.3951000000000001e+01 -1.3951000000000001e+01 -1.9930000000000000e+01 0 0 0
52 1 -1.1958000000000000e+01 -1.3951000000000001e+01 -1.7937000000000001e+01 0 0 0
87 1 -1.3951000000000001e+01 -1.1958000000000000e+01 -1.7937000000000001e+01 0 0 0
89 2 -1.1958000000000000e+01 -1.1958000000000000e+01 -1.9930000000000000e+01 0 0 0
446 1 -1.3951000000000001e+01 -1.3951000000000001e+01 -1.5944000000000001e+01 0 0 0
489 1 -1.1958000000000000e+01 -1.1958000000000000e+01 -1.5944000000000001e+01 0 0 0
50 2 -9.9649999999999999e+00 -1.3951000000000001e+01 -1.9930000000000000e+01 0 0 0
56 1 -7.9720000000000004e+00 -1.3951000000000001e+01 -1.7937000000000001e+01 0 0 0
91 1 -9.9649999999999999e+00 -1.1958000000000000e+01 -1.7937000000000001e+01 0 0 0
93 2 -7.9720000000000004e+00 -1.1958000000000000e+01 -1.9930000000000000e+01 0 0 0
450 1 -9.9649999999999999e+00 -1.3951000000000001e+01 -1.5944000000000001e+01 0 0 0
493 1 -7.9720000000000004e+00 -1.1958000000000000e+01 -1.5944000000000001e+01 0 0 0
54 2 -5.9790000000000001e+00 -1.3951000000000001e+01 -1.9930000000000000e+01 0 0 0
60 1 -3.9860000000000002e+00 -1.3951000000000001e+01 -1.7937000000000001e+01 0 0 0
95 1 -5.9790000000000001e+00 -1.1958000000000000e+01 -1.7937000000000001e+01 0 0 0
97 2 -3.9860000000000002e+00 -1.1958000000000000e+01 -1.9930000000000000e+01 0 0 0
454 1 -5.9790000000000001e+00 -1.3951000000000001e+01 -1.5944000000000001e+01 0 0 0
497 1 -3.9860000000000002e+00 -1.1958000000000000e+01 -1.5944000000000001e+01 0 0 0
58 2 -1.9930000000000001e+00 -1.3951000000000001e+01 -1.9930000000000000e+01 0 0 0
62 2 1.9930000000000001e+00 -1.3951000000000001e+01 -1.9930000000000000e+01 0 0 0
64 1 0.0000000000000000e+00 -1.3951000000000001e+01 -1.7937000000000001e+01 0 0 0
99 1 -1.9930000000000001e+00 -1.1958000000000000e+01 -1.7937000000000001e+01 0 0 0
101 2 0.0000000000000000e+00 -1.1958000000000000e+01 -1.9930000000000000e+01 0 0 0
103 1 1.9930000000000001e+00 -1.1958000000000000e+01 -1.7937000000000001e+01 0 0 0
458 1 -1.9930000000000001e+00 -1.3951000000000001e+01 -1.5944000000000001e+01 0 0 0
462 1 1.9930000000000001e+00 -1.3951000000000001e+01 -1.5944000000000001e+01 0 0 0
501 1 0.0000000000000000e+00 -1.1958000000000000e+01 -1.5944000000000001e+01 0 0 0
66 2 5.9790000000000001e+00 -1.3951000000000001e+01 -1.9930000000000000e+01 0 0 0
68 1 3.9860000000000002e+00 -1.3951000000000001e+01 -1.7937000000000001e+01 0 0 0
105 2 3.9860000000000002e+00 -1.1958000000000000e+01 -1.9930000000000000e+01 0 0 0
107 1 5.9790000000000001e+00 -1.1958000000000000e+01 -1.7937000000000001e+01 0 0 0
466 1 5.9790000000000001e+00 -1.3951000000000001e+01 -1.5944000000000001e+01 0 0 0
505 1 3.9860000000000002e+00 -1.1958000000000000e+01 -1.5944000000000001e+01 0 0 0
70 2 9.9649999999999999e+00 -1.3951000000000001e+01 -1.9930000000000000e+01 0 0 0
72 1 7.9720000000000004e+00 -1.3951000000000001e+01 -1.7937000000000001e+01 0 0 0
109 2 7.9720000000000004e+00 -1.1958000000000000e+01 -1.9930000000000000e+01 0 0 0
111 1 9.9649999999999999e+00 -1.1958000000000000e+01 -1.7937000000000001e+01 0 0 0
470 1 9.9649999999999999e+00 -1.3951000000000001e+01 -1.5944000000000001e+01 0 0 0
509 1 7.9720000000000004e+00 -1.1958000000000000e+01 -1.5944000000000001e+01 0 0 0
74 2 1.3951000000000001e+01 -1.3951000000000001e+01 -1.9930000000000000e+01 0 0 0
76 1 1.1958000000000000e+01 -1.3951000000000001e+01 -1.7937000000000001e+01 0 0 0
113 2 1.1958000000000000e+01 -1.1958000000000000e+01 -1.9930000000000000e+01 0 0 0
115 1 1.3951000000000001e+01 -1.1958000000000000e+01 -1.7937000000000001e+01 0 0 0
474 1 1.3951000000000001e+01 -1.3951000000000001e+01 -1.5944000000000001e+01 0 0 0
513 1 1.1958000000000000e+01 -1.1958000000000000e+01 -1.5944000000000001e+01 0 0 0
78 2 1.7937000000000001e+01 -1.3951000000000001e+01 -1.9930000000000000e+01 0 0 0
80 1 1.5944000000000001e+01 -1.3951000000000001e+01 -1.7937000000000001e+01 0 0 0
117 2 1.5944000000000001e+01 -1.1958000000000000e+01 -1.9930000000000000e+01 0 0 0
119 1 1.7937000000000001e+01 -1.1958000000000000e+01 -1.7937000000000001e+01 0 0 0
478 1 1.7937000000000001e+01 -1.3951000000000001e+01 -1.5944000000000001e+01 0 0 0
517 1 1.5944000000000001e+01 -1.1958000000000000e+01 -1.5944000000000001e+01 0 0 0
82 2 -1.7937000000000001e+01 -9.9649999999999999e+00 -1.9930000000000000e+01 0 0 0
84 2 -1.9930000000000000e+01 -9.9649999999999999e+00 -1.7937000000000001e+01 0 0 0
88 1 -1.5944000000000001e+01 -9.9649999999999999e+00 -1.7937000000000001e+01 0 0 0
121 2 -1.9930000000000000e+01 -7.9720000000000004e+00 -1.9930000000000000e+01 0 0 0
123 1 -1.7937000000000001e+01 -7.9720000000000004e+00 -1.7937000000000001e+01 0 0 0
125 2 -1.5944000000000001e+01 -7.9720000000000004e+00 -1.9930000000000000e+01 0 0 0
482 1 -1.7937000000000001e+01 -9.9649999999999999e+00 -1.5944000000000001e+01 0 0 0
521 2 -1.9930000000000000e+01 -7.9720000000000004e+00 -1.5944000000000001e+01 0 0 0
525 1 -1.5944000000000001e+01 -7.9720000000000004e+00 -1.5944000000000001e+01 0 0 0
86 2 -1.3951000000000001e+01 -9.9649999999999999e+00 -1.9930000000000000e+01 0 0 0
92 1 -1.1958000000000000e+01 -9.9649999999999999e+00 -1.7937000000000001e+01 0 0 0
127 1 -1.3951000000000001e+01 -7.9720000000000004e+00 -1.7937000000000001e+01 0 0 0
129 2 -1.1958000000000000e+01 -7.9720000000000004e+00 -1.9930000000000000e+01 0 0 0
486 1 -1.3951000000000001e+01 -9.9649999999999999e+00 -1.5944000000000001e+01 0 0 0
529 1 -1.1958000000000000e+01 -7.9720000000000004e+00 -1.5944000000000001e+01 0 0 0
90 2 -9.9649999999999999e+00 -9.9649999999999999e+00 -1.9930000000000000e+01 0 0 0
96 1 -7.9720000000000004e+00 -9.9649999999999999e+00 -1.7937000000000001e+01 0 0 0
131 1 -9.9649999999999999e+00 -7.9720000000000004e+00 -1.7937000000000001e+01 0 0 0
133 2 -7.9720000000000004e+00 -7.9720000000000004e+00 -1.9930000000000000e+01 0 0 0
490 1 -9.9649999999999999e+00 -9.9649999999999999e+00 -1.5944000000000001e+01 0 0 0
533 1 -7.9720000000000004e+00 -7.9720000000000004e+00 -1.5944000000000001e+01 0 0 0
94 2 -5.9790000000000001e+00 -9.9649999999999999e+00 -1.9930000000000000e+01 0 0 0
100 1 -3.9860000000000002e+00 -9.9649999999999999e+00 -1.7937000000000001e+01 0 0 0
135 1 -5.9790000000000001e+00 -7.9720000000000004e+00 -1.7937000000000001e+01 0 0 0
137 2 -3.9860000000000002e+00 -7.9720000000000004e+00 -1.9930000000000000e+01 0 0 0
494 1 -5.9790000000000001e+00 -9.9649999999999999e+00 -1.5944000000000001e+01 0 0 0
537 1 -3.9860000000000002e+00 -7.9720000000000004e+00 -1.5944000000000001e+01 0 0 0
98 2 -1.9930000000000001e+00 -9.9649999999999999e+00 -1.9930000000000000e+01 0 0 0
102 2 1.9930000000000001e+00 -9.9649999999999999e+00 -1.9930000000000000e+01 0 0 0
104 1 0.0000000000000000e+00 -9.9649999999999999e+00 -1.7937000000000001e+01 0 0 0
139 1 -1.9930000000000001e+00 -7.9720000000000004e+00 -1.7937000000000001e+01 0 0 0
141 2 0.0000000000000000e+00 -7.9720000000000004e+00 -1.9930000000000000e+01 0 0 0
143 1 1.9930000000000001e+00 -7.9720000000000004e+00 -1.7937000000000001e+01 0 0 0
498 1 -1.9930000000000001e+00 -9.9649999999999999e+00 -1.5944000000000001e+01 0 0 0
502 1 1.9930000000000001e+00 -9.9649999999999999e+00 -1.5944000000000001e+01 0 0 0
541 1 0.0000000000000000e+00 -7.9720000000000004e+00 -1.5944000000000001e+01 0 0 0
106 2 5.9790000000000001e+00 -9.9649999999999999e+00 -1.9930000000000000e+01 0 0 0
108 1 3.9860000000000002e+00 -9.9649999999999999e+00 -1.7937000000000001e+01 0 0 0
145 2 3.9860000000000002e+00 -7.9720000000000004e+00 -1.9930000000000000e+01 0 0 0
147 1 5.9790000000000001e+00 -7.9720000000000004e+00 -1.7937000000000001e+01 0 0 0
506 1 5.9790000000000001e+00 -9.9649999999999999e+00 -1.5944000000000001e+01 0 0 0
545 1 3.9860000000000002e+00 -7.9720000000000004e+00 -1.5944000000000001e+01 0 0 0
110 2 9.9649999999999999e+00 -9.9649999999999999e+00 -1.9930000000000000e+01 0 0 0
112 1 7.9720000000000004e+00 -9.9649999999999999e+00 -1.7937000000000001e+01 0 0 0
149 2 7.9720000000000004e+00 -7.9720000000000004e+00 -1.9930000000000000e+01 0 0 0
151 1 9.9649999999999999e+00 -7.9720000000000004e+00 -1.7937000000000001e+01 0 0 0
510 1 9.9649999999999999e+00 -9.9649999999999999e+00 -1.5944000000000001e+01 0 0 0
549 1 7.9720000000000004e+00 -7.9720000000000004e+00 -1.5944000000000001e+01 0 0 0
114 2 1.3951000000000001e+01 -9.9649999999999999e+00 -1.9930000000000000e+01 0 0 0
116 1 1.1958000000000000e+01 -9.9649999999999999e+00 -1.7937000000000001e+01 0 0 0
153 2 1.1958000000000000e+01 -7.9720000000000004e+00 -1.9930000000000000e+01 0 0 0
155 1 1.3951000000000001e+01 -7.9720000000000004e+00 -1.7937000000000001e+01 0 0 0
514 1 1.3951000000000001e+01 -9.9649999999999999e+00 -1.5944000000000001e+01 0 0 0
553 1 1.1958000000000000e+01 -7.9720000000000004e+00 -1.5944000000000001e+01 0 0 0
118 2 1.7937000000000001e+01 -9.9649999999999999e+00 -1.9930000000000000e+01 0 0 0
120 1 1.5944000000000001e+01 -9.9649999999999999e+00 -1.7937000000000001e+01 0 0 0
157 2 1.5944000000000001e+01 -7.9720000000000004e+00 -1.9930000000000000e+01 0 0 0
159 1 1.7937000000000001e+01 -7.9720000000000004e+00 -1.7937000000000001e+01 0 0 0
518 1 1.7937000000000001e+01 -9.9649999999999999e+00 -1.5944000000000001e+01 0 0 0
557 1 1.5944000000000001e+01 -7.9720000000000004e+00 -1.5944000000000001e+01 0 0 0
122 2 -1.7937000000000001e+01 -5.9790000000000001e+00 -1.9930000000000000e+01 0 0 0
124 2 -1.9930000000000000e+01 -5.9790000000000001e+00 -1.7937000000000001e+01 0 0 0
128 1 -1.5944000000000001e+01 -5.9790000000000001e+00 -1.7937000000000001e+01 0 0 0
161 2 -1.9930000000000000e+01 -3.9860000000000002e+00 -1.9930000000000000e+01 0 0 0
163 1 -1.7937000000000001e+01 -3.9860000000000002e+00 -1.7937000000000001e+01 0 0 0
165 2 -1.5944000000000001e+01 -3.9860000000000002e+00 -1.9930000000000000e+01 0 0 0
522 1 -1.7937000000000001e+01 -5.9790000000000001e+00 -1.5944000000000001e+01 0 0 0
561 2 -1.9930000000000000e+01 -3.9860000000000002e+00 -1.5944000000000001e+01 0 0 0
565 1 -1.5944000000000001e+01 -3.9860000000000002e+00 -1.5944000000000001e+01 0 0 0
126 2 -1.3951000000000001e+01 -5.9790000000000001e+00 -1.9930000000000000e+01 0 0 0
132 1 -1.1958000000000000e+01 -5.9790000000000001e+00 -1.7937000000000001e+01 0 0 0
167 1 -1.3951000000000001e+01 -3.9860000000000002e+00 -1.7937000000000001e+01 0 0 0
169 2 -1.1958000000000000e+01 -3.9860000000000002e+00 -1.9930000000000000e+01 0 0 0
526 1 -1.3951000000000001e+01 -5.9790000000000001e+00 -1.5944000000000001e+01 0 0 0
569 1 -1.1958000000000000e+01 -3.9860000000000002e+00 -1.5944000000000001e+01 0 0 0
130 2 -9.9649999999999999e+00 -5.9790000000000001e+00 -1.9930000000000000e+01 0 0 0
136 1 -7.9720000000000004e+00 -5.9790000000000001e+00 -1.7937000000000001e+01 0 0 0
171 1 -9.9649999999999999e+00 -3.9860000000000002e+00 -1.7937000000000001e+01 0 0 0
173 2 -7.9720000000000004e+00 -3.9860000000000002e+00 -1.9930000000000000e+01 0 0 0
530 1 -9.9649999999999999e+00 -5.9790000000000001e+00 -1.5944000000000001e+01 0 0 0
573 1 -7.9720000000000004e+00 -3.9860000000000002e+00 -1.5944000000000001e+01 0 0 0
134 2 -5.9790000000000001e+00 -5.9790000000000001e+00 -1.9930000000000000e+01 0 0 0
140 1 -3.9860000000000002e+00 -5.9790000000000001e+00 -1.7937000000000001e+01 0 0 0
175 1 -5.9790000000000001e+00 -3.9860000000000002e+00 -1.7937000000000001e+01 0 0 0
177 2 -3.9860000000000002e+00 -3.9860000000000002e+00 -1.9930000000000000e+01 0 0 0
534 1 -5.9790000000000001e+00 -5.9790000000000001e+00 -1.5944000000000001e+01 0 0 0
577 1 -3.9860000000000002e+00 -3.9860000000000002e+00 -1.5944000000000001e+01 0 0 0
138 2 -1.9930000000000001e+00 -5.9790000000000001e+00 -1.9930000000000000e+01 0 0 0
142 2 1.9930000000000001e+00 -5.9790000000000001e+00 -1.9930000000000000e+01 0 0 0
144 1 0.0000000000000000e+00 -5.9790000000000001e+00 -1.7937000000000001e+01 0 0 0
179 1 -1.9930000000000001e+00 -3.9860000000000002e+00 -1.7937000000000001e+01 0 0 0
181 2 0.0000000000000000e+00 -3.9860000000000002e+00 -1.9930000000000000e+01 0 0 0
183 1 1.9930000000000001e+00 -3.9860000000000002e+00 -1.7937000000000001e+01 0 0 0
538 1 -1.9930000000000001e+00 -5.9790000000000001e+00 -1.5944000000000001e+01 0 0 0
542 1 1.9930000000000001e+00 -5.9790000000000001e+00 -1.5944000000000001e+01 0 0 0
581 1 0.0000000000000000e+00 -3.9860000000000002e+00 -1.5944000000000001e+01 0 0 0
146 2 5.9790000000000001e+00 -5.9790000000000001e+00 -1.9930000000000000e+01 0 0 0
148 1 3.9860000000000002e+00 -5.9790000000000001e+00 -1.7937000000000001e+01 0 0 0
185 2 3.9860000000000002e+00 -3.9860000000000002e+00 -1.9930000000000000e+01 0 0 0
187 1 5.9790000000000001e+00 -3.9860000000000002e+00 -1.7937000000000001e+01 0 0 0
546 1 5.9790000000000001e+00 -5.9790000000000001e+00 -1.5944000000000001e+01 0 0 0
585 1 3.9860000000000002e+00 -3.9860000000000002e+00 -1.5944000000000001e+01 0 0 0
150 2 9.9649999999999999e+00 -5.9790000000000001e+00 -1.9930000000000000e+01 0 0 0
152 1 7.9720000000000004e+00 -5.9790000000000001e+00 -1.7937000000000001e+01 0 0 0
189 2 7.9720000000000004e+00 -3.9860000000000002e+00 -1.9930000000000000e+01 0 0 0
191 1 9.9649999999999999e+00 -3.9860000000000002e+00 -1.7937000000000001e+01 0 0 0
550 1 9.9649999999999999e+00 -5.9790000000000001e+00 -1.5944000000000001e+01 0 0 0
589 1 7.9720000000000004e+00 -3.9860000000000002e+00 -1.5944000000000001e+01 0 0 0
154 2 1.3951000000000001e+01 -5.9790000000000001e+00 -1.9930000000000000e+01 0 0 0
156 1 1.1958000000000000e+01 -5.9790000000000001e+00 -1.7937000000000001e+01 0 0 0
193 2 1.1958000000000000e+01 -3.9860000000000002e+00 -1.9930000000000000e+01 0 0 0
195 1 1.3951000000000001e+01 -3.9860000000000002e+00 -1.7937000000000001e+01 0 0 0
554 1 1.3951000000000001e+01 -5.9790000000000001e+00 -1.5944000000000001e+01 0 0 0
593 1 1.1958000000000000e+01 -3.9860000000000002e+00 -1.5944000000000001e+01 0 0 0
158 2 1.7937000000000001e+01 -5.9790000000000001e+00 -1.9930000000000000e+01 0 0 0
160 1 1.5944000000000001e+01 -5.9790000000000001e+00 -1.7937000000000001e+01 0 0 0
197 2 1.5944000000000001e+01 -3.9860000000000002e+00 -1.9930000000000000e+01 0 0 0
199 1 1.7937000000000001e+01 -3.9860000000000002e+00 -1.7937000000000001e+01 0 0 0
558 1 1.7937000000000001e+01 -5.9790000000000001e+00 -1.5944000000000001e+01 0 0 0
597 1 1.5944000000000001e+01 -3.9860000000000002e+00 -1.5944000000000001e+01 0 0 0
162 2 -1.7937000000000001e+01 -1.9930000000000001e+00 -1.9930000000000000e+01 0 0 0
164 2 -1.9930000000000000e+01 -1.9930000000000001e+00 -1.7937000000000001e+01 0 0 0
168 1 -1.5944000000000001e+01 -1.9930000000000001e+00 -1.7937000000000001e+01 0 0 0
201 2 -1.9930000000000000e+01 0.0000000000000000e+00 -1.9930000000000000e+01 0 0 0
202 2 -1.7937000000000001e+01 1.9930000000000001e+00 -1.9930000000000000e+01 0 0 0
203 1 -1.7937000000000001e+01 0.0000000000000000e+00 -1.7937000000000001e+01 0 0 0
204 2 -1.9930000000000000e+01 1.9930000000000001e+00 -1.7937000000000001e+01 0 0 0
205 2 -1.5944000000000001e+01 0.0000000000000000e+00 -1.9930000000000000e+01 0 0 0
208 1 -1.5944000000000001e+01 1.9930000000000001e+00 -1.7937000000000001e+01 0 0 0
562 1 -1.7937000000000001e+01 -1.9930000000000001e+00 -1.5944000000000001e+01 0 0 0
601 2 -1.9930000000000000e+01 0.0000000000000000e+00 -1.5944000000000001e+01 0 0 0
602 1 -1.7937000000000001e+01 1.9930000000000001e+00 -1.5944000000000001e+01 0 0 0
605 1 -1.5944000000000001e+01 0.0000000000000000e+00 -1.5944000000000001e+01 0 0 0
166 2 -1.3951000000000001e+01 -1.9930000000000001e+00 -1.9930000000000000e+01 0 0 0
172 1 -1.1958000000000000e+01 -1.9930000000000001e+00 -1.7937000000000001e+01 0 0 0
206 2 -1.3951000000000001e+01 1.9930000000000001e+00 -1.9930000000000000e+01 0 0 0
207 1 -1.3951000000000001e+01 0.0000000000000000e+00 -1.7937000000000001e+01 0 0 0
209 2 -1.1958000000000000e+01 0.0000000000000000e+00 -1.9930000000000000e+01 0 0 0
212 1 -1.1958000000000000e+01 1.9930000000000001e+00 -1.7937000000000001e+01 0 0 0
566 1 -1.3951000000000001e+01 -1.9930000000000001e+00 -1.5944000000000001e+01 0 0 0
606 1 -1.3951000000000001e+01 1.9930000000000001e+00 -1.5944000000000001e+01 0 0 0
609 1 -1.1958000000000000e+01 0.0000000000000000e+00 -1.5944000000000001e+01 0 0 0
170 2 -9.9649999999999999e+00 -1.9930000000000001e+00 -1.9930000000000000e+01 0 0 0
176 1 -7.9720000000000004e+00 -1.9930000000000001e+00 -1.7937000000000001e+01 0 0 0
210 2 -9.9649999999999999e+00 1.9930000000000001e+00 -1.9930000000000000e+01 0 0 0
211 1 -9.9649999999999999e+00 0.0000000000000000e+00 -1.7937000000000001e+01 0 0 0
213 2 -7.9720000000000004e+00 0.0000000000000000e+00 -1.9930000000000000e+01 0 0 0
216 1 -7.9720000000000004e+00 1.9930000000000001e+00 -1.7937000000000001e+01 0 0 0
570 1 -9.9649999999999999e+00 -1.9930000000000001e+00 -1.5944000000000001e+01 0 0 0
610 1 -9.9649999999999999e+00 1.9930000000000001e+00 -1.5944000000000001e+01 0 0 0
613 1 -7.9720000000000004e+00 0.0000000000000000e+00 -1.5944000000000001e+01 0 0 0
174 2 -5.9790000000000001e+00 -1.9930000000000001e+00 -1.9930000000000000e+01 0 0 0
180 1 -3.9860000000000002e+00 -1.9930000000000001e+00 -1.7937000000000001e+01 0 0 0
214 2 -5.9790000000000001e+00 1.9930000000000001e+00 -1.9930000000000000e+01 0 0 0
215 1 -5.9790000000000001e+00 0.0000000000000000e+00 -1.7937000000000001e+01 0 0 0
217 2 -3.9860000000000002e+00 0.0000000000000000e+00 -1.9930000000000000e+01 0 0 0
220 1 -3.9860000000000002e+00 1.9930000000000001e+00 -1.7937000000000001e+01 0 0 0
574 1 -5.9790000000000001e+00 -1.9930000000000001e+00 -1.5944000000000001e+01 0 0 0
614 1 -5.9790000000000001e+00 1.9930000000000001e+00 -1.5944000000000001e+01 0 0 0
617 1 -3.9860000000000002e+00 0.0000000000000000e+00 -1.5944000000000001e+01 0 0 0
178 2 -1.9930000000000001e+00 -1.9930000000000001e+00 -1.9930000000000000e+01 0 0 0
182 2 1.9930000000000001e+00 -1.9930000000000001e+00 -1.9930000000000000e+01 0 0 0
184 1 0.0000000000000000e+00 -1.9930000000000001e+00 -1.7937000000000001e+01 0 0 0
218 2 -1.9930000000000001e+00 1.9930000000000001e+00 -1.9930000000000000e+01 0 0 0
219 1 -1.9930000000000001e+00 0.0000000000000000e+00 -1.7937000000000001e+01 0 0 0
221 2 0.0000000000000000e+00 0.0000000000000000e+00 -1.9930000000000000e+01 0 0 0
222 2 1.9930000000000001e+00 1.9930000000000001e+00 -1.9930000000000000e+01 0 0 0
223 1 1.9930000000000001e+00 0.0000000000000000e+00 -1.7937000000000001e+01 0 0 0
224 1 0.0000000000000000e+00 1.9930000000000001e+00 -1.7937000000000001e+01 0 0 0
578 1 -1.9930000000000001e+00 -1.9930000000000001e+00 -1.5944000000000001e+01 0 0 0
582 1 1.9930000000000001e+00 -1.9930000000000001e+00 -1.5944000000000001e+01 0 0 0
618 1 -1.9930000000000001e+00 1.9930000000000001e+00 -1.5944000000000001e+01 0 0 0
621 1 0.0000000000000000e+00 0.0000000000000000e+00 -1.5944000000000001e+01 0 0 0
622 1 1.9930000000000001e+00 1.9930000000000001e+00 -1.5944000000000001e+01 0 0 0
186 2 5.9790000000000001e+00 -1.9930000000000001e+00 -1.9930000000000000e+01 0 0 0
188 1 3.9860000000000002e+00 -1.9930000000000001e+00 -1.7937000000000001e+01 0 0 0
225 2 3.9860000000000002e+00 0.0000000000000000e+00 -1.9930000000000000e+01 0 0 0
226 2 5.9790000000000001e+00 1.9930000000000001e+00 -1.9930000000000000e+01 0 0 0
227 1 5.9790000000000001e+00 0.0000000000000000e+00 -1.7937000000000001e+01 0 0 0
228 1 3.9860000000000002e+00 1.9930000000000001e+00 -1.7937000000000001e+01 0 0 0
586 1 5.9790000000000001e+00 -1.9930000000000001e+00 -1.5944000000000001e+01 0 0 0
625 1 3.9860000000000002e+00 0.0000000000000000e+00 -1.5944000000000001e+01 0 0 0
626 1 5.9790000000000001e+00 1.9930000000000001e+00 -1.5944000000000001e+01 0 0 0
190 2 9.9649999999999999e+00 -1.9930000000000001e+00 -1.9930000000000000e+01 0 0 0
192 1 7.9720000000000004e+00 -1.9930000000000001e+00 -1.7937000000000001e+01 0 0 0
229 2 7.9720000000000004e+00 0.0000000000000000e+00 -1.9930000000000000e+01 0 0 0
230 2 9.9649999999999999e+00 1.9930000000000001e+00 -1.9930000000000000e+01 0 0 0
231 1 9.9649999999999999e+00 0.0000000000000000e+00 -1.7937000000000001e+01 0 0 0
232 1 7.9720000000000004e+00 1.9930000000000001e+00 -1.7937000000000001e+01 0 0 0
590 1 9.9649999999999999e+00 -1.9930000000000001e+00 -1.5944000000000001e+01 0 0 0
629 1 7.9720000000000004e+00 0.0000000000000000e+00 -1.5944000000000001e+01 0 0 0
630 1 9.9649999999999999e+00 1.9930000000000001e+00 -1.5944000000000001e+01 0 0 0
194 2 1.3951000000000001e+01 -1.9930000000000001e+00 -1.9930000000000000e+01 0 0 0
196 1 1.1958000000000000e+01 -1.9930000000000001e+00 -1.7937000000000001e+01 0 0 0
233 2 1.1958000000000000e+01 0.0000000000000000e+00 -1.9930000000000000e+01 0 0 0
234 2 1.3951000000000001e+01 1.9930000000000001e+00 -1.9930000000000000e+01 0 0 0
235 1 1.3951000000000001e+01 0.0000000000000000e+00 -1.7937000000000001e+01 0 0 0
236 1 1.1958000000000000e+01 1.9930000000000001e+00 -1.7937000000000001e+01 0 0 0
594 1 1.3951000000000001e+01 -1.9930000000000001e+00 -1.5944000000000001e+01 0 0 0
633 1 1.1958000000000000e+01 0.0000000000000000e+00 -1.5944000000000001e+01 0 0 0
634 1 1.3951000000000001e+01 1.9930000000000001e+00 -1.5944000000000001e+01 0 0 0
198 2 1.7937000000000001e+01 -1.9930000000000001e+00 -1.9930000000000000e+01 0 0 0
200 1 1.5944000000000001e+01 -1.9930000000000001e+00 -1.7937000000000001e+01 0 0 0
237 2 1.5944000000000001e+01 0.0000000000000000e+00 -1.9930000000000000e+01 0 0 0
238 2 1.7937000000000001e+01 1.9930000000000001e+00 -1.9930000000000000e+01 0 0 0
239 1 1.7937000000000001e+01 0.0000000000000000e+00 -1.7937000000000001e+01 0 0 0
240 1 1.5944000000000001e+01 1.9930000000000001e+00 -1.7937000000000001e+01 0 0 0