ITEM: TIMESTEP
0
ITEM: NUMBER OF ATOMS
840
ITEM: BOX BOUNDS pp ss pp
0 45.3078
-0.00192501 19.2482
-0.283174 0.283174
ITEM: ATOMS id type fx fy fz 
1 2 1 0 0 
3 2 0 0 0 
2 2 0 0 0 
5 2 0 0 0 
4 2 0 0 0 
7 2 0 0 0 
6 2 0 0 0 
8 2 0 0 0 
9 2 0 0 0 
10 2 0 0 0 
11 2 0 0 0 
13 2 0 0 0 
12 2 0 0 0 
15 2 0 0 0 
14 2 0 0 0 
17 2 0 0 0 
16 2 0 0 0 
18 2 0 0 0 
19 2 0 0 0 
20 2 0 0 0 
21 2 0 0 0 
23 2 0 0 0 
22 2 0 0 0 
25 2 0 0 0 
24 2 0 0 0 
27 2 0 0 0 
26 2 0 0 0 
28 2 0 0 0 
29 2 0 0 0 
30 2 0 0 0 
31 2 0 0 0 
33 2 0 0 0 
32 2 0 0 0 
35 2 0 0 0 
34 2 0 0 0 
37 2 0 0 0 
36 2 0 0 0 
38 2 0 0 0 
39 2 0 0 0 
40 2 0 0 0 
41 2 0 0 0 
43 2 0 0 0 
42 2 0 0 0 
45 2 0 0 0 
44 2 0 0 0 
47 2 0 0 0 
46 2 0 0 0 
48 2 0 0 0 
49 2 0 0 0 
50 2 0 0 0 
51 2 0 0 0 
53 2 0 0 0 
52 2 0 0 0 
55 2 0 0 0 
54 2 0 0 0 
57 2 0 0 0 
56 2 0 0 0 
58 2 0 0 0 
59 2 0 0 0 
60 2 0 0 0 
61 2 0 0 0 
63 2 0 0 0 
62 2 0 0 0 
65 2 0 0 0 
64 2 0 0 0 
67 2 0 0 0 
66 2 0 0 0 
68 2 0 0 0 
69 2 0 0 0 
70 2 0 0 0 
71 2 0 0 0 
73 2 0 0 0 
72 2 0 0 0 
75 2 0 0 0 
74 2 0 0 0 
77 2 0 0 0 
76 2 0 0 0 
78 2 0 0 0 
79 2 0 0 0 
80 2 0 0 0 
81 2 0 0 0 
83 2 0 0 0 
82 1 7.24989e-05 -0.000141048 0 
85 2 0 0 0 
84 1 0.000134921 -7.80649e-06 0 
86 1 -0.000139701 0.000107106 0 
87 2 0 0 0 
88 1 -0.000155507 0.000109152 0 
89 2 0 0 0 
90 1 -0.000260615 -5.38914e-05 0 
91 2 0 0 0 
93 2 0 0 0 
92 1 6.06574e-05 8.93151e-05 0 
95 2 0 0 0 
94 1 0.000252539 -8.04178e-05 0 
96 1 -5.27298e-05 -0.000268316 0 
97 2 0 0 0 
98 1 -7.62292e-05 -0.000154261 0 
99 2 0 0 0 
100 1 6.19701e-05 2.95214e-07 0 
101 2 0 0 0 
103 2 0 0 0 
102 1 0.000156582 0.000203709 0 
105 2 0 0 0 
104 1 0.000249682 0.000225948 0 
106 1 -0.000394857 -9.67552e-05 0 
107 2 0 0 0 
108 1 -0.000147096 0.000277991 0 
109 2 0 0 0 
110 1 0.000234259 7.40002e-05 0 
111 2 0 0 0 
113 2 0 0 0 
112 1 0.000375014 -1.22531e-06 0 
115 2 0 0 0 
114 1 -0.000106418 -0.000275947 0 
116 1 -0.000634394 0.000188942 0 
117 2 0 0 0 
118 1 -2.52415e-05 0.000297751 0 
119 2 0 0 0 
120 1 7.30289e-05 -0.000637464 0 
121 2 0 0 0 
123 2 0 0 0 
122 1 -0.00027419 -0.00106029 0 
125 2 0 0 0 
124 1 4.15087e-05 -0.000405244 0 
126 1 4.49126e-05 0.000208945 0 
127 2 0 0 0 
128 1 4.27231e-05 0.000222314 0 
129 2 0 0 0 
130 1 0.000123933 -0.000241868 0 
131 2 0 0 0 
133 2 0 0 0 
132 1 0.000271505 7.46946e-05 0 
135 2 0 0 0 
134 1 -0.000212667 -0.000767917 0 
137 2 0 0 0 
136 1 0.00148544 -0.00244093 0 
138 1 -0.00077726 0.000671091 0 
139 2 0 0 0 
140 1 4.50437e-05 -0.000527893 0 
141 2 0 0 0 
143 2 0 0 0 
142 1 1.29249e-05 4.28667e-05 0 
145 2 0 0 0 
144 1 0.000117843 -0.000134217 0 
147 2 0 0 0 
146 1 9.57159e-05 6.98692e-05 0 
148 1 -0.00014763 -1.59635e-05 0 
149 2 0 0 0 
150 1 0.000157149 -9.08847e-05 0 
151 2 0 0 0 
153 2 0 0 0 
152 1 3.28154e-05 1.95814e-05 0 
155 2 0 0 0 
154 1 -0.000178542 0.000144544 0 
157 2 0 0 0 
156 1 5.50804e-05 -0.000120046 0 
158 1 5.05553e-05 3.514e-05 0 
159 2 0 0 0 
160 1 -3.60626e-05 -1.57603e-05 0 
163 1 -3.23977e-05 -5.38697e-05 0 
165 1 -8.68971e-05 8.68935e-05 0 
167 1 0.000175682 1.28836e-05 0 
169 1 -8.68618e-05 2.66152e-05 0 
171 1 -0.000165048 9.58487e-05 0 
173 1 2.85748e-05 -3.00851e-05 0 
175 1 0.000122856 1.49091e-05 0 
177 1 0.000167662 0.000221842 0 
179 1 0.000100673 0.000257291 0 
181 1 -0.000248103 -4.65695e-05 0 
183 1 -5.89448e-05 -0.000589152 0 
185 1 0.000241283 -0.000510089 0 
187 1 9.30977e-06 -0.000232388 0 
189 1 -0.000213056 0.000176646 0 
191 1 -0.000377453 -0.00021222 0 
193 1 0.000470426 -0.000147511 0 
195 1 0.000373423 -0.00024382 0 
197 1 -0.000201964 -9.86746e-05 0 
199 1 -0.000436945 0.000158914 0 
201 1 -0.000101946 0.000586386 0 
203 1 3.59748e-05 0.000589945 0 
205 1 0.000228391 0.000185812 0 
207 1 5.9665e-05 0.0004215 0 
209 1 -0.000531442 -6.13061e-05 0 
211 1 0.000207861 0.000169717 0 
213 1 0.000386908 0.000522526 0 
215 1 -0.00345811 0.00628842 0 
217 1 0.00188859 -0.00314544 0 
219 1 -0.000379609 0.000782284 0 
221 1 -0.000115366 0.000566815 0 
223 1 -2.30188e-05 1.96757e-06 0 
225 1 8.56303e-05 0.000120665 0 
227 1 -1.62282e-05 -5.11579e-05 0 
229 1 6.94142e-05 -0.000120952 0 
231 1 0.000150106 -4.43017e-05 0 
233 1 -0.000225538 0.000238894 0 
235 1 2.26086e-05 -0.000116241 0 
237 1 8.59603e-05 -6.03272e-06 0 
161 1 -2.02879e-05 -9.65808e-05 0 
239 1 -7.2061e-05 -1.06731e-05 0 
162 1 -8.44407e-05 -8.66534e-05 0 
243 1 5.82889e-05 -2.45931e-05 0 
164 1 0.000153356 3.84727e-05 0 
166 1 9.91486e-05 -5.40367e-05 0 
245 1 0.000126584 4.64963e-05 0 
168 1 3.86256e-05 -5.85538e-05 0 
247 1 6.17817e-05 -9.21686e-05 0 
170 1 2.50992e-05 5.93449e-05 0 
249 1 -0.00017161 4.31812e-05 0 
251 1 -2.3466e-05 -4.70093e-05 0 
172 1 -4.39652e-05 0.000111727 0 
253 1 0.000111054 2.26447e-05 0 
174 1 -0.000140993 -0.000108319 0 
176 1 -0.000171825 -0.000208971 0 
255 1 -0.000107897 -4.4321e-05 0 
178 1 4.90176e-05 -0.000158324 0 
257 1 0.000216859 0.000526169 0 
180 1 -4.68682e-05 -0.000467384 0 
259 1 -0.000140146 0.00018678 0 
261 1 -1.23601e-05 0.000281467 0 
182 1 3.97625e-05 0.000183695 0 
263 1 5.12494e-05 -0.000333745 0 
184 1 0.00015632 0.000649842 0 
186 1 5.63728e-06 7.40877e-05 0 
265 1 -0.000230893 -0.000795197 0 
188 1 0.000102367 -0.000130039 0 
267 1 -5.02808e-05 -0.00038512 0 
190 1 -0.000114092 -0.000317896 0 
269 1 0.000140095 0.000380869 0 
271 1 -0.00027731 0.000272964 0 
192 1 -6.64212e-05 0.000401198 0 
273 1 9.70724e-06 -0.000360616 0 
194 1 -7.65151e-05 -9.69357e-05 0 
196 1 0.000329777 -9.89684e-05 0 
275 1 -1.39491e-05 -0.000408956 0 
198 1 0.000646184 0.000212427 0 
277 1 -0.000228779 -0.000290285 0 
200 1 0.000258282 -0.000171378 0 
279 1 0.000324529 -0.000168888 0 
281 1 3.35498e-06 -0.000103053 0 
202 1 -0.000496547 -4.18255e-05 0 
283 1 0.000180728 0.000162557 0 
204 1 0.000255649 8.68573e-05 0 
206 1 0.000224425 0.000255989 0 
285 1 6.66318e-05 2.56366e-05 0 
208 1 -0.000820536 -0.000268514 0 
287 1 -0.000728006 -0.0005667 0 
210 1 0.000518435 0.000341229 0 
289 1 0.000249932 0.000326996 0 
291 1 -0.000138604 0.000146107 0 
212 1 -0.00048938 -0.000534536 0 
293 1 -0.0114396 0.0212816 0 
214 1 0.00677629 -0.0131992 0 
295 1 0.00321964 -0.00315927 0 
216 1 -0.00312486 0.00379293 0 
218 1 0.00102523 -0.000608339 0 
297 1 -0.000519015 4.94988e-05 0 
220 1 -0.000124542 8.03951e-05 0 
299 1 0.000247857 -0.000300518 0 
222 1 -3.41618e-05 -1.7463e-05 0 
301 1 -3.2657e-05 0.000414832 0 
303 1 5.13897e-05 -0.000435631 0 
224 1 -1.62504e-05 -8.83679e-05 0 
305 1 -4.12539e-05 0.000137335 0 
226 1 9.92497e-05 1.05249e-05 0 
228 1 0.000109101 3.59146e-05 0 
307 1 -4.22477e-05 9.75695e-05 0 
230 1 0.000114656 -8.96323e-05 0 
309 1 3.42682e-05 -8.43246e-05 0 
232 1 -0.000131062 9.41987e-05 0 
311 1 8.96412e-05 -6.74979e-05 0 
313 1 2.14684e-05 7.96708e-05 0 
234 1 -0.000135619 6.07711e-06 0 
236 1 0.000102239 -0.000150629 0 
315 1 -6.95195e-05 -0.000188295 0 
238 1 1.9935e-05 0.000171907 0 
317 1 -0.000218914 0.000158753 0 
240 1 -0.000219457 -7.41542e-05 0 
241 1 1.62381e-05 -0.000155166 0 
319 1 2.26976e-05 5.84331e-05 0 
242 1 -5.17134e-05 2.26352e-06 0 
244 1 0.000112116 6.87264e-05 0 
246 1 -1.13802e-05 -2.58002e-05 0 
248 1 -1.03411e-05 -3.45341e-05 0 
250 1 0.000174077 5.48109e-05 0 
252 1 -5.3427e-05 -0.000191161 0 
254 1 -6.69142e-05 -8.46812e-05 0 
256 1 8.54132e-05 -4.15276e-05 0 
258 1 -0.000171771 -0.000127279 0 
260 1 7.78125e-06 -9.37166e-05 0 
262 1 -0.0001422 -0.000247398 0 
264 1 0.000159662 0.000600443 0 
266 1 0.000264798 0.000751936 0 
268 1 0.000206386 0.000201212 0 
270 1 7.85725e-05 -0.000176794 0 
272 1 -0.000256818 -0.000159302 0 
274 1 0.000201152 0.000638356 0 
276 1 3.67152e-05 0.000478096 0 
278 1 -0.000204791 5.32909e-05 0 
280 1 -0.000178598 -0.000175153 0 
282 1 0.000376386 5.39364e-05 0 
284 1 -2.00036e-05 -0.000279084 0 
286 1 -0.000628458 -0.000714063 0 
288 1 0.000739743 -1.64698e-05 0 
290 1 0.000195361 -0.000132332 0 
292 1 0.0161837 -0.0265707 0 
294 1 -0.0038963 0.000825331 0 
296 1 0.00094252 0.000431908 0 
298 1 -0.000411676 0.000155829 0 
300 1 3.78703e-05 0.000576259 0 
302 1 -0.000163133 -0.000481866 0 
304 1 6.76561e-05 0.000212207 0 
306 1 -0.000129557 0.00014797 0 
308 1 0.000145332 -6.51351e-05 0 
310 1 -0.000169539 -0.000127986 0 
312 1 0.0001505 -1.42714e-05 0 
314 1 5.78281e-05 -7.0148e-06 0 
316 1 -0.000244312 5.97406e-05 0 
318 1 -5.3623e-06 -1.23787e-06 0 
320 1 3.94317e-05 -0.000129383 0 
322 1 -0.000139643 -7.91263e-05 0 
323 1 6.1905e-06 -7.116e-05 0 
324 1 -8.24895e-05 -6.43417e-05 0 
325 1 0.000176354 8.90095e-05 0 
326 1 1.49044e-06 6.24177e-05 0 
327 1 7.72743e-05 -7.48165e-05 0 
328 1 2.93326e-05 -2.41588e-05 0 
329 1 -5.60216e-06 1.73161e-05 0 
330 1 -3.92167e-05 0.000150638 0 
331 1 -1.75509e-05 8.07702e-05 0 
332 1 -0.000245904 -3.45625e-05 0 
333 1 -0.000120676 -0.000152395 0 
334 1 5.06932e-06 -5.42369e-05 0 
335 1 0.000105107 -5.26423e-05 0 
336 1 0.000230213 -0.000139746 0 
337 1 -0.000180573 0.00020037 0 
338 1 0.000207982 -2.7649e-05 0 
339 1 -0.000132224 0.000376831 0 
340 1 -0.00054034 -0.000256067 0 
341 1 -2.35351e-05 3.74946e-05 0 
342 1 3.41076e-06 0.00025959 0 
343 1 0.000585991 0.000145562 0 
344 1 6.93106e-06 -0.00010385 0 
345 1 -0.000210597 -0.000600497 0 
346 1 0.000634216 0.000552913 0 
347 1 -0.000300381 -0.000300426 0 
348 1 -4.05292e-05 0.000312827 0 
349 1 -0.000152069 -9.57874e-05 0 
350 1 -0.000424583 -3.75602e-05 0 
351 1 0.000277062 0.00014527 0 
352 1 -0.000380183 -0.000259077 0 
353 1 0.000407358 0.000153389 0 
354 1 0.000156915 -9.5138e-05 0 
355 1 -7.36662e-05 4.29384e-05 0 
356 1 0.000351427 -0.000142239 0 
357 1 0.000127025 0.000191079 0 
358 1 -0.000337142 0.000326422 0 
359 1 -0.000129484 7.32932e-05 0 
360 1 -2.49529e-05 0.000422727 0 
361 1 0.000159899 -0.000254916 0 
362 1 2.87315e-05 0.000446189 0 
363 1 -0.000176263 -0.000599302 0 
364 1 3.67021e-05 0.000635401 0 
365 1 -6.30489e-05 0.000127328 0 
366 1 6.4391e-05 0.000696563 0 
367 1 0.000639765 0.000400552 0 
368 1 0.000590327 0.000185248 0 
369 1 -0.000641244 -0.000208918 0 
370 1 0.0152647 -0.0215764 0 
371 1 -0.016907 0.0279142 0 
372 1 -0.00181912 -0.00322798 0 
373 1 0.000871106 0.00117191 0 
374 1 0.000477435 0.000446771 0 
375 1 0.000914854 -5.21665e-05 0 
376 1 -0.000778956 -0.000330111 0 
377 1 -0.000564889 -0.0004735 0 
378 1 0.00136281 0.000760093 0 
379 1 0.000608186 0.000178375 0 
380 1 -0.00113108 -0.000510178 0 
381 1 -0.000565733 -0.000594539 0 
382 1 0.000592783 0.000397198 0 
383 1 0.000359732 0.00017452 0 
384 1 -1.77401e-05 -7.18303e-05 0 
385 1 1.47986e-05 0.000124096 0 
386 1 0.000259902 -6.02964e-05 0 
387 1 0.000266799 -0.000120434 0 
388 1 -0.000233212 1.52565e-05 0 
389 1 -0.000326772 2.66467e-05 0 
390 1 -2.43458e-05 0.000140721 0 
391 1 1.15951e-05 -1.48786e-05 0 
392 1 2.78253e-05 0.000100736 0 
393 1 5.09076e-05 6.85886e-06 0 
394 1 -4.40317e-05 -5.22087e-05 0 
395 1 4.08807e-05 -4.27266e-05 0 
396 1 5.90364e-05 -0.000166149 0 
397 1 9.15327e-05 -3.12094e-05 0 
398 1 0.000129141 -2.76657e-05 0 
321 1 -0.000293403 -3.68458e-05 0 
399 1 -2.95443e-05 1.25098e-05 0 
400 1 3.94244e-05 9.96222e-05 0 
403 1 9.4624e-05 -4.66275e-05 0 
405 1 -0.00013439 0.00012361 0 
407 1 -0.000198668 7.2201e-05 0 
409 1 -1.80185e-05 -0.000109546 0 
411 1 0.000174376 2.97599e-05 0 
413 1 -0.000130218 -4.54251e-05 0 
415 1 5.84581e-06 5.87632e-05 0 
417 1 0.000170515 5.06916e-05 0 
419 1 2.71509e-05 -9.483e-05 0 
421 1 0.0001302 0.000304592 0 
423 1 -0.000656348 -0.00047158 0 
425 1 0.00046561 0.000171337 0 
427 1 -0.00029255 -0.000761096 0 
429 1 0.00022928 -0.000201248 0 
431 1 -1.76921e-05 0.000252189 0 
433 1 -0.000476115 -1.47641e-06 0 
435 1 2.25687e-06 -8.74744e-05 0 
437 1 -0.00023208 -0.000474829 0 
439 1 -0.000196673 -0.000171167 0 
441 1 -7.13161e-05 7.0817e-05 0 
443 1 -8.49947e-06 5.19798e-05 0 
445 1 -0.000137158 -0.000426623 0 
447 1 -0.000567188 -0.00055044 0 
448 1 0.00433568 -0.00621025 0 
449 1 -0.00904257 0.0124249 0 
450 1 0.00177868 -0.00424921 0 
451 1 -0.000708221 0.00338966 0 
452 1 -0.000324962 0.000119456 0 
453 1 0.000979679 -0.00019375 0 
454 1 -0.00023778 5.37359e-05 0 
455 1 -0.000648729 0.000105577 0 
457 1 0.0011059 0.000535244 0 
459 1 -0.00148924 -0.000777341 0 
461 1 0.000764603 0.000452097 0 
463 1 -0.000103829 -0.000141479 0 
465 1 7.97518e-05 -5.15052e-05 0 
467 1 -0.000138193 -0.000167822 0 
469 1 6.86341e-05 0.000309122 0 
471 1 -2.52731e-05 2.8941e-05 0 
473 1 -0.000151628 3.2527e-05 0 
475 1 2.41171e-05 -1.72042e-05 0 
477 1 0.000100348 -0.000117197 0 
401 1 7.39541e-05 2.5692e-05 0 
479 1 4.16573e-05 -6.32284e-05 0 
402 1 -3.86506e-05 -0.000168635 0 
483 1 -4.7513e-05 -0.000103369 0 
404 1 0.000111591 8.66547e-05 0 
406 1 9.26973e-05 0.000273337 0 
485 1 0.0001595 -4.24821e-05 0 
408 1 -2.72191e-05 -8.78172e-05 0 
487 1 0.000179452 0.000122402 0 
410 1 5.90495e-05 -0.000182601 0 
489 1 8.86681e-05 -4.69145e-05 0 
491 1 2.54746e-05 -1.67471e-05 0 
412 1 -2.34344e-05 -2.48372e-05 0 
493 1 -0.000179431 1.48494e-05 0 
414 1 -0.000203865 0.000122595 0 
416 1 -0.000177145 0.000137535 0 
495 1 -0.000117384 -3.81945e-05 0 
418 1 0.000120422 -5.34997e-06 0 
497 1 6.83524e-05 0.000133633 0 
420 1 -9.62025e-06 -0.000215805 0 
499 1 -2.63592e-05 6.0008e-05 0 
501 1 -9.03059e-07 -0.000263019 0 
422 1 -0.000183104 -8.50286e-05 0 
503 1 0.000219548 6.50981e-05 0 
424 1 0.000361255 0.000448608 0 
426 1 -0.000492907 -6.99644e-05 0 
505 1 -0.00040845 -0.000360517 0 
428 1 8.10085e-05 -5.3932e-05 0 
507 1 -0.000304912 6.03696e-05 0 
509 1 0.000194543 0.000302483 0 
430 1 0.0002878 -0.000365798 0 
511 1 0.000173885 0.000322166 0 
432 1 0.000379749 -0.000182875 0 
434 1 5.30191e-06 0.000253484 0 
513 1 -1.73526e-05 -0.000238234 0 
436 1 -0.000218735 -9.22457e-05 0 
515 1 0.000415678 -7.01839e-05 0 
438 1 6.51808e-05 -0.000150408 0 
517 1 0.000115131 -0.000339086 0 
519 1 0.00020771 0.000445004 0 
440 1 0.000133118 -0.000293808 0 
521 1 -4.59512e-05 -0.000103007 0 
442 1 2.74694e-05 -0.000629117 0 
444 1 -0.000168108 -0.000475264 0 
523 1 -7.5355e-06 0.000462753 0 
446 1 0.000277286 1.13176e-05 0 
525 1 -9.11021e-05 0.000194634 0 
526 1 0.000800471 -0.000961953 0 
527 1 -0.00173177 0.00275556 0 
529 1 -0.00232753 0.00421462 0 
531 1 3.00278e-05 0.000802181 0 
533 1 -4.18337e-05 -0.000291296 0 
535 1 0.00023587 0.000257942 0 
456 1 0.000425231 0.00023497 0 
458 1 -0.00115561 -0.000805806 0 
537 1 -0.000716436 -0.000539744 0 
460 1 0.000664013 0.000320603 0 
539 1 0.00046352 0.000352574 0 
462 1 -5.51033e-05 3.45234e-06 0 
541 1 -5.01542e-05 -0.000167608 0 
543 1 -2.73685e-05 3.85652e-05 0 
464 1 -2.43248e-05 7.17515e-05 0 
545 1 -9.72613e-05 7.66724e-05 0 
466 1 -0.000188805 -0.000161676 0 
468 1 0.000144319 0.000194611 0 
547 1 0.000394289 0.000213803 0 
470 1 0.000127484 -0.000149835 0 
549 1 -0.00016614 -0.000351354 0 
551 1 0.000167025 1.79323e-05 0 
472 1 8.31141e-05 4.1379e-05 0 
553 1 -0.000394096 -0.000115821 0 
474 1 -0.000350079 5.9085e-05 0 
476 1 -1.68033e-05 4.5672e-05 0 
555 1 -4.38877e-06 0.000111233 0 
478 1 9.18444e-05 5.13566e-06 0 
557 1 0.000157891 0.000151512 0 
480 1 3.30219e-05 -4.50456e-05 0 
481 1 -0.000198252 4.56366e-05 0 
559 1 2.91782e-05 1.63954e-05 0 
482 1 1.77064e-05 -7.85809e-06 0 
484 1 0.000326261 5.39431e-06 0 
486 1 -0.000108661 -5.51652e-06 0 
488 1 -0.000221293 -4.94309e-05 0 
490 1 9.3619e-05 -5.09872e-05 0 
492 1 0.000312729 4.83112e-05 0 
494 1 0.000229001 -0.000134216 0 
496 1 -7.02587e-05 2.21322e-05 0 
498 1 -0.000291845 0.00024101 0 
500 1 -0.000200255 -8.73835e-05 0 
502 1 0.000264033 -4.70918e-05 0 
504 1 0.000178506 -2.37853e-05 0 
506 1 -6.57466e-06 0.000331573 0 
508 1 1.53156e-05 0.000327883 0 
510 1 -0.000717637 -0.000675074 0 
591 1 0.000637316 0.00117209 0 
512 1 0.000180893 0.00013971 0 
514 1 -1.90759e-05 0.000118969 0 
593 1 -0.000463905 -0.000635576 0 
516 1 0.00020451 0.000391666 0 
595 1 -0.000165022 -0.000424364 0 
518 1 0.000113862 0.000350039 0 
597 1 -0.00014028 -2.6401e-05 0 
520 1 -0.000349885 -0.000423445 0 
522 1 0.000163519 -0.000197602 0 
524 1 0.000298216 -8.75645e-05 0 
605 1 -0.000152506 0.000695952 0 
528 1 0.00158533 -0.00269944 0 
607 1 -0.00113485 0.00189429 0 
530 1 0.000402489 -0.00116825 0 
609 1 -0.000727941 0.00102143 0 
532 1 -0.000247418 0.000120463 0 
611 1 0.000456131 -0.000123255 0 
613 1 0.000182592 2.97873e-05 0 
534 1 0.000337227 -0.000120156 0 
615 1 -0.000306212 -0.000113858 0 
536 1 -0.00039103 -0.000243314 0 
538 1 0.000319724 0.000322569 0 
617 1 0.000218165 0.000266259 0 
540 1 -1.54428e-05 -0.000105644 0 
619 1 4.44676e-05 4.27873e-05 0 
542 1 -4.10653e-05 -0.00020841 0 
544 1 -0.000104911 0.000156502 0 
546 1 0.000358359 0.000253441 0 
548 1 -0.000337233 -0.000355708 0 
550 1 0.000217663 0.000178877 0 
552 1 -0.000398217 -0.000292951 0 
554 1 -9.44098e-05 -0.000200073 0 
556 1 0.000376343 0.000219312 0 
558 1 5.07153e-05 0.000197776 0 
560 1 -0.00033721 3.99655e-05 0 
562 1 0.000197871 0.000159724 0 
563 1 -2.99349e-05 0.000235806 0 
564 1 -3.97214e-05 0.000265809 0 
565 1 8.49879e-06 -1.36296e-05 0 
566 1 -0.000308592 5.51537e-05 0 
567 1 0.000126302 -7.10942e-05 0 
568 1 6.38724e-05 -0.000178975 0 
569 1 -2.12866e-05 -0.000126781 0 
570 1 0.00022141 -0.000163311 0 
571 1 -0.000109419 -9.52759e-05 0 
572 1 -6.66752e-05 5.26051e-05 0 
573 1 3.60798e-06 9.2989e-07 0 
574 1 -0.000161584 6.49881e-05 0 
575 1 0.000155118 5.2798e-05 0 
576 1 4.477e-05 3.9385e-05 0 
577 1 9.1067e-05 0.000135276 0 
578 1 0.000324876 1.18302e-05 0 
579 1 -0.000155419 7.90831e-05 0 
580 1 0.000263165 -7.83316e-05 0 
581 1 -0.000297256 -0.000168054 0 
582 1 -0.000213232 2.82193e-05 0 
583 1 6.08888e-05 0.000106778 0 
584 1 -0.000397114 0.000233291 0 
585 1 0.000247121 -0.000256883 0 
586 1 -1.49631e-05 6.31274e-05 0 
587 1 0.000248661 -0.000130426 0 
588 1 0.000136087 -2.75916e-05 0 
589 1 -0.000281212 0.000224427 0 
590 1 0.000192496 0.000108564 0 
592 1 -0.000379466 -0.000322915 0 
594 1 0.000666057 0.00116073 0 
596 1 -0.000143312 0.000312308 0 
598 1 -0.000141267 -8.96281e-05 0 
599 1 0.000201896 0.000439658 0 
600 1 0.000274633 -0.000492438 0 
601 1 -7.55969e-06 0.00119746 0 
602 1 -3.45054e-06 -0.000535001 0 
603 1 -0.000483644 0.000564869 0 
683 1 -3.58191e-05 0.000110397 0 
604 1 0.000609346 -0.000623933 0 
685 1 -0.000465977 0.00037906 0 
606 1 0.000487329 -0.0010319 0 
608 1 0.000329805 -0.0011968 0 
687 1 0.000500078 9.20842e-06 0 
610 1 2.59759e-05 -0.000140002 0 
689 1 -0.000651531 0.000636222 0 
612 1 -7.61031e-05 0.000262338 0 
614 1 6.94073e-05 7.74184e-05 0 
616 1 -4.12762e-05 -7.05285e-05 0 
618 1 0.000197468 -0.000172282 0 
620 1 -0.000189043 0.00032148 0 
621 1 -0.000140166 -2.73205e-05 0 
622 1 -1.05416e-05 5.24425e-05 0 
623 1 -7.49336e-05 0.000183856 0 
624 1 0.000258823 -0.000195492 0 
625 1 0.000177034 -4.98367e-05 0 
626 1 -0.000123474 -8.40466e-05 0 
627 1 -0.00033781 -0.000311363 0 
628 1 0.000189198 0.000283728 0 
629 1 0.000426163 0.000297519 0 
630 1 -0.000263575 -0.00035511 0 
631 1 -0.000153873 -0.000206657 0 
632 1 -1.4365e-05 -0.00022894 0 
633 1 -0.000343671 -0.000339447 0 
634 1 0.000612388 0.000549134 0 
635 1 0.000309711 0.000314109 0 
636 1 -0.000332476 -7.80253e-06 0 
637 1 4.59737e-06 2.45182e-05 0 
638 1 -0.000296332 -0.000320729 0 
561 1 -4.08895e-05 0.000179244 0 
639 1 -7.1488e-05 -0.000208483 0 
640 1 7.3577e-05 -0.000133268 0 
643 1 -4.46058e-05 2.7792e-05 0 
645 1 -0.000212888 8.13768e-05 0 
647 1 -4.72505e-05 0.000107465 0 
649 1 -2.9732e-05 -5.63112e-05 0 
651 1 -8.08535e-05 -0.000110851 0 
653 1 5.20863e-05 7.01691e-05 0 
655 1 0.000251692 5.44285e-05 0 
657 1 0.000158661 -9.24683e-05 0 
659 1 8.16815e-05 -7.41048e-05 0 
661 1 -3.9591e-05 0.000108194 0 
663 1 -7.01291e-05 0.000108465 0 
664 1 0.000503545 0.000115828 0 
665 1 -6.56308e-05 3.88743e-05 0 
666 1 -0.000138757 -5.59307e-05 0 
667 1 -0.000217677 -0.000149458 0 
668 1 6.73178e-05 0.000311452 0 
669 1 5.85291e-05 0.000180685 0 
670 1 2.07379e-05 -0.000438751 0 
671 1 4.80275e-05 7.31354e-05 0 
672 1 -0.000222237 1.8503e-05 0 
673 1 -0.000472661 -0.000966499 0 
674 1 0.000808715 0.00134253 0 
675 1 -0.000349171 -0.00100558 0 
676 1 6.82465e-05 0.00133432 0 
677 1 0.000640071 -3.20831e-05 0 
678 1 -5.85561e-05 -0.000498274 0 
679 1 -0.000911208 -0.000614502 0 
680 1 0.00106727 0.00314002 0 
681 1 -0.000232063 -0.000393078 0 
761 1 -0.000776835 0.00196611 0 
682 1 0.000234461 -0.00070903 0 
763 1 -8.11694e-05 0.00143711 0 
684 1 0.000216051 -0.000518929 0 
686 1 0.00113032 -0.00128924 0 
688 1 -0.000441699 0.000372482 0 
690 1 0.000151882 -2.74004e-05 0 
691 1 0.000270048 1.97743e-05 0 
692 1 -0.000330523 -0.000149164 0 
693 1 -0.000160652 -0.000172624 0 
694 1 0.000120096 8.97829e-05 0 
695 1 -9.70753e-05 -0.000146415 0 
696 1 -5.89952e-05 1.65065e-07 0 
697 1 0.000371758 9.67389e-05 0 
698 1 -5.59154e-05 -0.000114085 0 
699 1 -8.68816e-05 -7.60316e-05 0 
700 1 3.46286e-05 -1.8081e-05 0 
701 1 0.000266698 -0.000164615 0 
702 1 -0.000185107 -0.000228942 0 
703 1 -0.000111897 5.17544e-05 0 
704 1 0.000189551 0.000137544 0 
705 1 -0.000103648 8.33948e-05 0 
707 1 0.000284828 0.000174474 0 
709 1 -0.000288518 -0.000300581 0 
711 1 -0.000248555 -6.13391e-05 0 
713 1 0.000458385 0.000436991 0 
715 1 -1.19419e-05 -3.67453e-05 0 
717 1 2.35163e-06 -0.000173211 0 
641 1 -4.69219e-05 -8.16881e-05 0 
719 1 0.00012987 -4.77013e-05 0 
642 1 0.000151543 -4.32264e-05 0 
723 1 0.000344662 9.97922e-05 0 
644 1 3.46805e-05 -0.00017304 0 
646 1 -0.000282749 -8.34478e-05 0 
725 1 -0.000105119 -0.000392615 0 
648 1 -0.000197237 0.00021177 0 
727 1 0.000123181 7.91546e-05 0 
650 1 2.30296e-05 0.000140887 0 
729 1 -0.000246771 0.00022546 0 
731 1 -0.000239569 -4.75148e-05 0 
652 1 7.66501e-05 -0.000149012 0 
733 1 0.000194801 -4.2502e-05 0 
654 1 9.03917e-05 -7.64169e-05 0 
656 1 4.39813e-05 0.000123885 0 
735 1 0.000251098 5.40231e-05 0 
658 1 -0.000125734 4.70014e-05 0 
737 1 -0.000227178 9.33829e-05 0 
739 1 -0.000148786 -0.00010259 0 
660 1 -0.000118785 -7.20177e-05 0 
741 1 5.57124e-06 -0.000187582 0 
662 1 0.000284163 -0.000164517 0 
743 1 0.000351718 -9.83866e-05 0 
745 1 -0.000177576 0.00011385 0 
747 1 0.000404394 0.000238884 0 
749 1 -0.000913093 -0.000205659 0 
751 1 0.000927984 4.71131e-05 0 
753 1 -0.000451833 -0.000298189 0 
755 1 -3.92549e-05 -0.00129419 0 
757 1 -0.00130316 -0.000156452 0 
759 1 0.00203287 -0.000967365 0 
760 1 -0.00245255 -0.00465839 0 
762 1 0.000366482 -0.00286472 0 
764 1 0.00252135 -0.00351943 0 
765 1 -0.00215882 0.00267892 0 
766 1 -0.000502264 -0.000149653 0 
767 1 0.000197836 0.000113118 0 
768 1 0.000195732 6.95197e-05 0 
769 1 0.000216705 -0.00015358 0 
770 1 -0.000105174 -0.000358548 0 
771 1 -0.000117386 -2.05293e-05 0 
773 1 2.40531e-06 0.000185497 0 
775 1 -0.000212507 -0.000153635 0 
777 1 -7.98952e-05 -3.00159e-05 0 
779 1 -8.46258e-05 0.000200091 0 
781 1 6.13253e-05 -1.09544e-06 0 
783 1 1.46166e-05 0.000135539 0 
706 1 0.000144355 0.00017664 0 
785 1 2.78949e-05 -0.000408756 0 
708 1 -0.000531822 -0.000431027 0 
787 1 -0.000111565 -0.000519356 0 
710 1 -6.53644e-05 0.000158836 0 
789 1 0.0001422 0.000666938 0 
791 1 0.000184077 0.000491192 0 
712 1 0.000645063 0.000718651 0 
793 1 -0.000216109 -0.000609223 0 
714 1 -0.000299388 -0.000388235 0 
716 1 -0.000198177 -0.00039438 0 
795 1 0.000227034 0.000128105 0 
718 1 0.000390044 0.000321831 0 
797 1 -5.36971e-05 0.000222766 0 
720 1 -8.58833e-05 4.64977e-05 0 
721 1 0.000405322 0.000282949 0 
799 1 -0.000667177 -0.000419084 0 
722 1 -0.000597368 -0.000343429 0 
802 1 0.000100426 0.000155622 0 
724 1 -0.000118403 -0.000251974 0 
726 1 0.000744026 0.000279664 0 
803 1 -9.72822e-05 -7.3777e-05 0 
728 1 9.65827e-05 -4.98245e-05 0 
804 1 -0.000320562 -0.000206935 0 
730 1 -0.000387067 -8.06228e-06 0 
805 1 0.000182663 6.48015e-05 0 
806 1 0.000357377 0.000104115 0 
732 1 -0.000317926 9.53572e-05 0 
807 1 -0.00010553 -2.94348e-07 0 
734 1 0.000193012 -7.77899e-05 0 
736 1 0.000425664 -4.18405e-05 0 
808 1 -0.000116321 -0.00012589 0 
738 1 -2.61638e-05 1.05092e-05 0 
809 1 -0.000139328 -0.000114472 0 
810 1 0.000135558 7.88216e-05 0 
740 1 -0.000335168 2.45478e-05 0 
811 1 -9.55475e-05 0.000219784 0 
742 1 -4.62099e-05 -5.49162e-05 0 
744 1 -8.21253e-05 -4.65926e-05 0 
812 1 -8.13353e-05 7.36393e-05 0 
746 1 1.15174e-05 9.97469e-05 0 
813 1 -0.000155363 -0.000137585 0 
748 1 -0.000249869 -1.75285e-05 0 
814 1 3.07315e-05 -0.000284157 0 
815 1 -3.29556e-05 -2.22783e-05 0 
750 1 0.000243552 -5.81398e-06 0 
816 1 0.000439502 0.000185975 0 
752 1 -9.42213e-05 -0.000122632 0 
754 1 -4.31015e-05 -0.000134367 0 
817 1 -0.00119224 0.000242 0 
756 1 0.00134151 0.001328 0 
818 1 0.00106603 8.77444e-05 0 
819 1 -0.00102241 -0.00246124 0 
758 1 -0.000930976 0.00116579 0 
820 1 0.000225503 -0.000219622 0 
821 1 0.00108964 0.00441088 0 
822 1 -0.00186613 0.00317518 0 
823 1 0.000560154 -0.000422165 0 
824 1 -0.000122999 -3.28123e-06 0 
825 1 -3.53722e-05 0.000162784 0 
826 1 0.000125904 0.000158549 0 
772 1 0.000290446 0.000195945 0 
827 1 -0.00021058 -0.000154968 0 
774 1 6.11975e-05 3.50409e-05 0 
776 1 -5.52608e-05 0.000120044 0 
828 1 0.000122475 -5.19602e-05 0 
778 1 -0.000164827 0.000222383 0 
829 1 4.52742e-05 -0.000102391 0 
780 1 7.55256e-05 -0.000153062 0 
830 1 -0.000133914 -2.96617e-05 0 
831 1 0.000134277 5.93435e-05 0 
782 1 0.000262923 5.00753e-05 0 
832 1 -0.000113052 0.000121462 0 
784 1 -1.04022e-05 -1.9009e-05 0 
786 1 -0.000207006 -0.000120956 0 
833 1 4.09709e-05 0.0001805 0 
788 1 0.00015154 -1.47552e-05 0 
834 1 0.000107297 4.64983e-05 0 
790 1 0.000226624 -8.56813e-05 0 
835 1 -0.000114162 -9.10837e-05 0 
836 1 -0.000111791 -0.000132083 0 
792 1 -0.000146363 0.000252018 0 
837 1 -3.91556e-05 -0.000101808 0 
794 1 -0.000101711 0.000238594 0 
796 1 1.14605e-05 -0.000471914 0 
838 1 6.43923e-05 4.78311e-05 0 
798 1 0.000109871 -4.11004e-05 0 
839 1 0.000281346 0.000106065 0 
800 1 0.000192965 0.000567916 0 
801 1 -0.000280506 -7.42959e-06 0 
840 1 8.21333e-05 1.60271e-06 0 
ITEM: TIMESTEP
1
ITEM: NUMBER OF ATOMS
840
ITEM: BOX BOUNDS pp ss pp
0 45.3078
-0.00192501 19.2482
-0.283174 0.283174
ITEM: ATOMS id type fx fy fz 
1 2 0 0 0 
3 2 0 0 0 
2 2 0 0 0 
5 2 0 0 0 
4 2 0 0 0 
7 2 0 0 0 
6 2 0 0 0 
8 2 0 0 0 
9 2 0 0 0 
10 2 0 0 0 
11 2 0 0 0 
13 2 0 0 0 
12 2 0 0 0 
15 2 0 0 0 
14 2 0 0 0 
17 2 0 0 0 
16 2 0 0 0 
18 2 0 0 0 
19 2 0 0 0 
20 2 0 0 0 
21 2 0 0 0 
23 2 0 0 0 
22 2 0 0 0 
25 2 0 0 0 
24 2 0 0 0 
27 2 0 0 0 
26 2 0 0 0 
28 2 0 0 0 
29 2 0 0 0 
30 2 0 0 0 
31 2 0 0 0 
33 2 0 0 0 
32 2 0 0 0 
35 2 0 0 0 
34 2 0 0 0 
37 2 0 0 0 
36 2 0 0 0 
38 2 0 0 0 
39 2 0 0 0 
40 2 0 0 0 
41 2 0 0 0 
43 2 0 0 0 
42 2 0 0 0 
45 2 0 0 0 
44 2 0 0 0 
47 2 0 0 0 
46 2 0 0 0 
48 2 0 0 0 
49 2 0 0 0 
50 2 0 0 0 
51 2 0 0 0 
53 2 0 0 0 
52 2 0 0 0 
55 2 0 0 0 
54 2 0 0 0 
57 2 0 0 0 
56 2 0 0 0 
58 2 0 0 0 
59 2 0 0 0 
60 2 0 0 0 
61 2 0 0 0 
63 2 0 0 0 
62 2 0 0 0 
65 2 0 0 0 
64 2 0 0 0 
67 2 0 0 0 
66 2 0 0 0 
68 2 0 0 0 
69 2 0 0 0 
70 2 0 0 0 
71 2 0 0 0 
73 2 0 0 0 
72 2 0 0 0 
75 2 0 0 0 
74 2 0 0 0 
77 2 0 0 0 
76 2 0 0 0 
78 2 0 0 0 
79 2 0 0 0 
80 2 0 0 0 
81 2 0 0 0 
83 2 0 0 0 
82 1 7.24989e-05 -0.000141048 0 
85 2 0 0 0 
84 1 0.000134921 -7.80649e-06 0 
86 1 -0.000139701 0.000107106 0 
87 2 0 0 0 
88 1 -0.000155507 0.000109152 0 
89 2 0 0 0 
90 1 -0.000260615 -5.38914e-05 0 
91 2 0 0 0 
93 2 0 0 0 
92 1 6.06574e-05 8.93151e-05 0 
95 2 0 0 0 
94 1 0.000252539 -8.04178e-05 0 
96 1 -5.27298e-05 -0.000268316 0 
97 2 0 0 0 
98 1 -7.62292e-05 -0.000154261 0 
99 2 0 0 0 
100 1 6.19701e-05 2.95214e-07 0 
101 2 0 0 0 
103 2 0 0 0 
102 1 0.000156582 0.000203709 0 
105 2 0 0 0 
104 1 0.000249682 0.000225948 0 
106 1 -0.000394857 -9.67552e-05 0 
107 2 0 0 0 
108 1 -0.000147096 0.000277991 0 
109 2 0 0 0 
110 1 0.000234259 7.40002e-05 0 
111 2 0 0 0 
113 2 0 0 0 
112 1 0.000375014 -1.22531e-06 0 
115 2 0 0 0 
114 1 -0.000106418 -0.000275947 0 
116 1 -0.000634394 0.000188942 0 
117 2 0 0 0 
118 1 -2.52415e-05 0.000297751 0 
119 2 0 0 0 
120 1 7.30289e-05 -0.000637464 0 
121 2 0 0 0 
123 2 0 0 0 
122 1 -0.00027419 -0.00106029 0 
125 2 0 0 0 
124 1 4.15087e-05 -0.000405244 0 
126 1 4.49126e-05 0.000208945 0 
127 2 0 0 0 
128 1 4.27231e-05 0.000222314 0 
129 2 0 0 0 
130 1 0.000123933 -0.000241868 0 
131 2 0 0 0 
133 2 0 0 0 
132 1 0.000271505 7.46946e-05 0 
135 2 0 0 0 
134 1 -0.000212667 -0.000767917 0 
137 2 0 0 0 
136 1 0.00148544 -0.00244093 0 
138 1 -0.00077726 0.000671091 0 
139 2 0 0 0 
140 1 4.50437e-05 -0.000527893 0 
141 2 0 0 0 
143 2 0 0 0 
142 1 1.29249e-05 4.28667e-05 0 
145 2 0 0 0 
144 1 0.000117843 -0.000134217 0 
147 2 0 0 0 
146 1 9.57159e-05 6.98692e-05 0 
148 1 -0.00014763 -1.59635e-05 0 
149 2 0 0 0 
150 1 0.000157149 -9.08847e-05 0 
151 2 0 0 0 
153 2 0 0 0 
152 1 3.28154e-05 1.95814e-05 0 
155 2 0 0 0 
154 1 -0.000178542 0.000144544 0 
157 2 0 0 0 
156 1 5.50804e-05 -0.000120046 0 
158 1 5.05553e-05 3.514e-05 0 
159 2 0 0 0 
160 1 -3.60626e-05 -1.57603e-05 0 
163 1 -3.23977e-05 -5.38697e-05 0 
165 1 -8.68971e-05 8.68935e-05 0 
167 1 0.000175682 1.28836e-05 0 
169 1 -8.68618e-05 2.66152e-05 0 
171 1 -0.000165048 9.58487e-05 0 
173 1 2.85748e-05 -3.00851e-05 0 
175 1 0.000122856 1.49091e-05 0 
177 1 0.000167662 0.000221842 0 
179 1 0.000100673 0.000257291 0 
181 1 -0.000248103 -4.65695e-05 0 
183 1 -5.89448e-05 -0.000589152 0 
185 1 0.000241283 -0.000510089 0 
187 1 9.30977e-06 -0.000232388 0 
189 1 -0.000213056 0.000176646 0 
191 1 -0.000377453 -0.00021222 0 
193 1 0.000470426 -0.000147511 0 
195 1 0.000373423 -0.00024382 0 
197 1 -0.000201964 -9.86746e-05 0 
199 1 -0.000436945 0.000158914 0 
201 1 -0.000101946 0.000586386 0 
203 1 3.59748e-05 0.000589945 0 
205 1 0.000228391 0.000185812 0 
207 1 5.9665e-05 0.0004215 0 
209 1 -0.000531442 -6.13061e-05 0 
211 1 0.000207861 0.000169717 0 
213 1 0.000386908 0.000522526 0 
215 1 -0.00345811 0.00628842 0 
217 1 0.00188859 -0.00314544 0 
219 1 -0.000379609 0.000782284 0 
221 1 -0.000115366 0.000566815 0 
223 1 -2.30188e-05 1.96757e-06 0 
225 1 8.56303e-05 0.000120665 0 
227 1 -1.62282e-05 -5.11579e-05 0 
229 1 6.94142e-05 -0.000120952 0 
231 1 0.000150106 -4.43017e-05 0 