ITEM: TIMESTEP
62
ITEM: NUMBER OF ATOMS
420
ITEM: BOX BOUNDS pp ss pp
0 22.6539
-0.00196189 19.2198
-0.283174 0.283174
ITEM: ATOMS id x y z 
1 0 0 0 
2 0.566348 0.980944 0 
3 1.1327 0 0 
4 1.69904 0.980944 0 
5 2.26539 0 0 
6 2.83174 0.980944 0 
7 3.39809 0 0 
8 3.96444 0.980944 0 
9 4.53078 0 0 
10 5.09713 0.980944 0 
11 5.66348 0 0 
12 6.22983 0.980944 0 
13 6.79618 0 0 
14 7.36253 0.980944 0 
15 7.92887 0 0 
16 8.49522 0.980944 0 
17 9.06157 0 0 
18 9.62792 0.980944 0 
19 10.1943 0 0 
20 10.7606 0.980944 0 
21 11.327 0 0 
22 11.8933 0.980944 0 
23 12.4597 0 0 
24 13.026 0.980944 0 
25 13.5924 0 0 
26 14.1587 0.980944 0 
27 14.7251 0 0 
28 15.2914 0.980944 0 
29 15.8577 0 0 
30 16.4241 0.980944 0 
31 16.9904 0 0 
32 17.5568 0.980944 0 
33 18.1231 0 0 
34 18.6895 0.980944 0 
35 19.2558 0 0 
36 19.8222 0.980944 0 
37 20.3885 0 0 
38 20.9549 0.980944 0 
39 21.5212 0 0 
40 22.0876 0.980944 0 
41 0 1.96189 0 
43 1.1327 1.96189 0 
42 0.566101 2.9156 0 
45 2.26539 1.96189 0 
44 1.69833 2.91555 0 
46 2.83065 2.91547 0 
47 3.39809 1.96189 0 
48 3.96309 2.91538 0 
49 4.53078 1.96189 0 
50 5.09567 2.91528 0 
51 5.66348 1.96189 0 
53 6.79618 1.96189 0 
52 6.2284 2.91519 0 
55 7.92887 1.96189 0 
54 7.36127 2.91513 0 
56 8.49425 2.91508 0 
57 9.06157 1.96189 0 
58 9.6273 2.91505 0 
59 10.1943 1.96189 0 
60 10.7604 2.91504 0 
61 11.327 1.96189 0 
63 12.4597 1.96189 0 
62 11.8935 2.91504 0 
65 13.5924 1.96189 0 
64 13.0266 2.91505 0 
66 14.1597 2.91508 0 
67 14.7251 1.96189 0 
68 15.2927 2.91513 0 
69 15.8577 1.96189 0 
70 16.4255 2.91519 0 
71 16.9904 1.96189 0 
73 18.1231 1.96189 0 
72 17.5583 2.91528 0 
75 19.2558 1.96189 0 
74 18.6908 2.91538 0 
77 20.3885 1.96189 0 
76 19.8233 2.91547 0 
78 20.9556 2.91555 0 
79 21.5212 1.96189 0 
80 22.0878 2.9156 0 
83 1.13175 3.86924 0 
85 2.2636 3.86906 0 
87 3.39566 3.86881 0 
89 4.52797 3.86852 0 
91 5.66058 3.86824 0 
93 6.79348 3.868 0 
95 7.92662 3.86782 0 
97 9.05996 3.8677 0 
99 10.1934 3.86763 0 
101 11.327 3.8676 0 
103 12.4605 3.86763 0 
105 13.594 3.8677 0 
107 14.7273 3.86782 0 
109 15.8604 3.868 0 
111 16.9933 3.86824 0 
113 18.1259 3.86852 0 
115 19.2583 3.86881 0 
117 20.3903 3.86906 0 
81 22.6539 3.8693 0 
119 21.5222 3.86924 0 
82 0.565637 4.82329 0 
121 22.6539 5.77768 0 
123 1.13083 5.77748 0 
84 1.69699 4.82305 0 
125 2.26185 5.77693 0 
86 2.82855 4.82262 0 
88 3.96046 4.82207 0 
127 3.39323 5.7761 0 
90 5.09278 4.8215 0 
129 4.5251 5.77515 0 
92 6.22555 4.82097 0 
131 5.65756 5.77419 0 
133 6.79061 5.77335 0 
94 7.35872 4.82053 0 
135 7.92419 5.77269 0 
96 8.49225 4.82021 0 
98 9.62603 4.82 0 
137 9.0582 5.77223 0 
100 10.76 4.8199 0 
139 10.1925 5.77196 0 
141 11.327 5.77187 0 
102 11.894 4.8199 0 
143 12.4614 5.77196 0 
104 13.0279 4.82 0 
145 13.5957 5.77223 0 
106 14.1617 4.82021 0 
108 15.2952 4.82053 0 
147 14.7297 5.77269 0 
110 16.4284 4.82097 0 
149 15.8633 5.77335 0 
112 17.5611 4.8215 0 
151 16.9964 5.77419 0 
153 18.1288 5.77515 0 
114 18.6935 4.82207 0 
155 19.2607 5.7761 0 
116 19.8254 4.82262 0 
118 20.9569 4.82305 0 
157 20.3921 5.77693 0 
120 22.0883 4.82329 0 
159 21.5231 5.77748 0 
122 0.565172 6.73235 0 
124 1.69562 6.73179 0 
126 2.82639 6.73074 0 
128 3.95768 6.72937 0 
130 5.08964 6.72788 0 
132 6.22236 6.72647 0 
134 7.35583 6.72528 0 
136 8.48995 6.72439 0 
138 9.62456 6.72381 0 
140 10.7595 6.72353 0 
142 11.8945 6.72353 0 
144 13.0294 6.72381 0 
146 14.164 6.72439 0 
148 15.2981 6.72528 0 
150 16.4316 6.72647 0 
152 17.5643 6.72788 0 
154 18.6962 6.72937 0 
156 19.8275 6.73074 0 
158 20.9583 6.73179 0 
160 22.0888 6.73235 0 
163 1.12992 7.68721 0 
162 0.564729 8.64312 0 
165 2.26006 7.68608 0 
164 1.6943 8.64212 0 
167 3.39066 7.68435 0 
166 2.82421 8.6402 0 
168 3.95473 8.63759 0 
169 4.52195 7.68227 0 
171 5.65412 7.68012 0 
170 5.08612 8.63462 0 
173 6.78724 7.67818 0 
172 6.21861 8.6317 0 
175 7.92129 7.67663 0 
174 7.3523 8.62919 0 
176 8.48707 8.62729 0 
177 9.05608 7.67554 0 
178 9.62269 8.62606 0 
179 10.1914 7.6749 0 
181 11.327 7.67469 0 
180 10.7588 8.62546 0 
183 12.4625 7.6749 0 
182 11.8951 8.62546 0 
185 13.5978 7.67554 0 
184 13.0312 8.62606 0 
186 14.1668 8.62729 0 
187 14.7326 7.67663 0 
188 15.3016 8.62919 0 
189 15.8667 7.67818 0 
191 16.9998 7.68012 0 
190 16.4353 8.6317 0 
193 18.132 7.68227 0 
192 17.5678 8.63462 0 
195 19.2633 7.68435 0 
194 18.6992 8.63759 0 
196 19.8297 8.6402 0 
197 20.3939 7.68608 0 
198 20.9596 8.64212 0 
161 22.6539 7.6876 0 
199 21.524 7.68721 0 
200 22.0892 8.64312 0 
201 -2.19521e-010 9.59941 0 
203 1.12911 9.59878 0 
205 2.25842 9.59692 0 
207 3.38818 9.594 0 
209 4.51867 9.59028 0 
211 5.65024 9.58623 0 
213 6.7832 9.58243 0 
215 7.91762 9.57933 0 
217 9.05332 9.57714 0 
219 10.1899 9.57587 0 
221 11.327 9.57546 0 
223 12.464 9.57587 0 
225 13.6006 9.57714 0 
227 14.7363 9.57933 0 
229 15.8707 9.58243 0 
231 17.0037 9.58623 0 
233 18.1353 9.59028 0 
235 19.2657 9.594 0 
237 20.3955 9.59692 0 
239 21.5248 9.59878 0 
202 0.564402 10.5559 0 
243 1.12867 11.5124 0 
204 1.69329 10.5544 0 
206 2.82243 10.5515 0 
245 2.25746 11.5098 0 
208 3.95209 10.5473 0 
247 3.3865 11.5056 0 
210 5.08259 10.5422 0 
249 4.51608 11.4999 0 
251 5.6466 11.4932 0 
212 6.21441 10.5369 0 
253 6.7787 11.4863 0 
214 7.34797 10.5321 0 
255 7.91303 11.4804 0 
216 8.48334 10.5284 0 
218 9.62018 10.5261 0 
257 9.04962 11.4763 0 
220 10.7579 10.5249 0 
259 10.1879 11.4739 0 
222 11.896 10.5249 0 
261 11.327 11.4732 0 
263 12.466 11.4739 0 
224 13.0337 10.5261 0 
226 14.1706 10.5284 0 
265 13.6043 11.4763 0 
228 15.306 10.5321 0 
267 14.7409 11.4804 0 
230 16.4395 10.5369 0 
269 15.8752 11.4863 0 
271 17.0073 11.4932 0 
232 17.5713 10.5422 0 
273 18.1378 11.4999 0 
234 18.7018 10.5473 0 
236 19.8315 10.5515 0 
275 19.2674 11.5056 0 
238 20.9606 10.5544 0 
277 20.3965 11.5098 0 
240 22.0895 10.5559 0 
241 -2.60972e-010 11.5133 0 
279 21.5253 11.5124 0 
242 0.564351 12.4707 0 
244 1.69307 12.4688 0 
246 2.82186 12.4649 0 
248 3.95086 12.4592 0 
250 5.08033 12.4517 0 
252 6.2108 12.4431 0 
254 7.34318 12.4343 0 
256 8.47851 12.4272 0 
258 9.61669 12.4227 0 
260 10.7567 12.4206 0 
262 11.8972 12.4206 0 
264 13.0372 12.4227 0 
266 14.1754 12.4272 0 
268 15.3107 12.4343 0 
270 16.4431 12.4431 0 
272 17.5736 12.4517 0 
274 18.7031 12.4592 0 
276 19.8321 12.4649 0 
278 20.9609 12.4688 0 
280 22.0896 12.4707 0 
281 22.6539 13.429 0 
283 1.12897 13.428 0 
282 0.564766 14.3871 0 
285 2.25791 13.4248 0 
284 1.69424 14.3849 0 
287 3.38681 13.4196 0 
286 2.82355 14.3805 0 
288 3.95265 14.3736 0 
289 4.51576 13.4121 0 
290 5.08155 14.3643 0 
291 5.64505 13.4026 0 
293 6.77532 13.3914 0 
292 6.21052 14.3522 0 
295 7.90792 13.3802 0 
294 7.34034 14.338 0 
297 9.04459 13.3719 0 
296 8.47298 14.3237 0 
298 9.61156 14.3142 0 
299 10.1849 13.3674 0 
301 11.327 13.366 0 
300 10.7547 14.3102 0 
303 12.4691 13.3674 0 
302 11.8992 14.3102 0 
305 13.6093 13.3719 0 
304 13.0424 14.3142 0 
306 14.1809 14.3237 0 
307 14.746 13.3802 0 
308 15.3136 14.338 0 
309 15.8786 13.3914 0 
310 16.4434 14.3522 0 
311 17.0089 13.4026 0 
313 18.1382 13.4121 0 
312 17.5724 14.3643 0 
315 19.2671 13.4196 0 
314 18.7013 14.3736 0 
316 19.8304 14.3805 0 
317 20.396 13.4248 0 
318 20.9597 14.3849 0 
319 21.5249 13.428 0 
320 22.0892 14.3871 0 
321 22.6539 15.3459 0 
323 1.13037 15.3448 0 
325 2.26056 15.3414 0 
327 3.39043 15.3356 0 
329 4.51982 15.3271 0 
331 5.64866 15.3155 0 
333 6.77714 15.3006 0 
335 7.90609 15.2823 0 
337 9.03843 15.2637 0 
339 10.1799 15.2534 0 
341 11.327 15.2506 0 
343 12.474 15.2534 0 
345 13.6155 15.2637 0 
347 14.7478 15.2823 0 
349 15.8768 15.3006 0 
351 17.0053 15.3155 0 
353 18.1341 15.3271 0 
355 19.2635 15.3356 0 
357 20.3934 15.3414 0 
359 21.5236 15.3448 0 
322 0.565774 16.3041 0 
363 1.13296 17.2615 0 
324 1.69723 16.3018 0 
326 2.82838 16.2972 0 
365 2.26575 17.2582 0 
328 3.95901 16.29 0 
367 3.39814 17.2523 0 
330 5.08888 16.2798 0 
369 4.52988 17.2437 0 
332 6.21776 16.2659 0 
371 5.66061 17.2317 0 
373 6.78986 17.2153 0 
334 7.34559 16.2475 0 
336 8.47306 16.2238 0 
375 7.91709 17.1928 0 
338 9.60445 16.1988 0 
377 9.04233 17.1615 0 
340 10.7509 16.1886 0 
379 10.1717 17.1268 0 
381 11.327 17.1182 0 
342 11.9031 16.1886 0 
383 12.4822 17.1268 0 
344 13.0495 16.1988 0 
346 14.1809 16.2238 0 
385 13.6116 17.1615 0 
348 15.3083 16.2475 0 
387 14.7368 17.1928 0 
350 16.4362 16.2659 0 
389 15.8641 17.2153 0 
352 17.565 16.2798 0 
391 16.9933 17.2317 0 
393 18.124 17.2437 0 
354 18.6949 16.29 0 
395 19.2558 17.2523 0 
356 19.8255 16.2972 0 
358 20.9567 16.3018 0 
397 20.3882 17.2582 0 
360 22.0881 16.3041 0 
361 22.6539 17.2626 0 
399 21.521 17.2615 0 
362 0.56732 18.2203 0 
402 1.13642 19.1811 0 
364 1.7019 18.2181 0 
403 2.27281 19.1778 0 
366 2.83629 18.2136 0 
368 3.97031 18.2066 0 
404 3.40911 19.1721 0 
370 5.1037 18.1965 0 
405 4.54526 19.1637 0 
406 5.68115 19.152 0 
372 6.23607 18.1826 0 
407 6.81656 19.1358 0 
374 7.36667 18.1634 0 
408 7.95101 19.1133 0 
376 8.49427 18.1361 0 
378 9.61697 18.0933 0 
409 9.0832 19.0795 0 
380 10.7437 18.0428 0 
410 10.2082 19.0152 0 
382 11.9102 18.0428 0 
411 11.327 18.9433 0 
412 12.4457 19.0152 0 
384 13.037 18.0933 0 
413 13.5707 19.0795 0 
386 14.1597 18.1361 0 
388 15.2873 18.1634 0 
414 14.7029 19.1133 0 
390 16.4179 18.1826 0 
415 15.8374 19.1358 0 
392 17.5502 18.1965 0 
416 16.9728 19.152 0 
417 18.1087 19.1637 0 
394 18.6836 18.2066 0 
418 19.2448 19.1721 0 
396 19.8176 18.2136 0 
398 20.952 18.2181 0 
419 20.3811 19.1778 0 
401 -3.43909e-010 19.1822 0 
400 22.0866 18.2203 0 
420 21.5175 19.1811 0 
ITEM: TIMESTEP
67
ITEM: NUMBER OF ATOMS
420
ITEM: BOX BOUNDS pp ss pp
0 22.6539
-0.00196189 19.1842
-0.283174 0.283174
ITEM: ATOMS id x y z 
1 0 0 0 
2 0.566348 0.980944 0 
3 1.1327 0 0 
4 1.69904 0.980944 0 
5 2.26539 0 0 
6 2.83174 0.980944 0 
7 3.39809 0 0 
8 3.96444 0.980944 0 
9 4.53078 0 0 
10 5.09713 0.980944 0 
11 5.66348 0 0 
12 6.22983 0.980944 0 
13 6.79618 0 0 
14 7.36253 0.980944 0 
15 7.92887 0 0 
16 8.49522 0.980944 0 
17 9.06157 0 0 
18 9.62792 0.980944 0 
19 10.1943 0 0 
20 10.7606 0.980944 0 
21 11.327 0 0 
22 11.8933 0.980944 0 
23 12.4597 0 0 
24 13.026 0.980944 0 
25 13.5924 0 0 
26 14.1587 0.980944 0 
27 14.7251 0 0 
28 15.2914 0.980944 0 
29 15.8577 0 0 
30 16.4241 0.980944 0 
31 16.9904 0 0 
32 17.5568 0.980944 0 
33 18.1231 0 0 
34 18.6895 0.980944 0 
35 19.2558 0 0 
36 19.8222 0.980944 0 
37 20.3885 0 0 
38 20.9549 0.980944 0 
39 21.5212 0 0 
40 22.0876 0.980944 0 
41 0 1.96189 0 
43 1.1327 1.96189 0 
42 0.565997 2.91352 0 
45 2.26539 1.96189 0 
44 1.69803 2.91346 0 
46 2.8302 2.91336 0 
47 3.39809 1.96189 0 
48 3.96254 2.91324 0 
49 4.53078 1.96189 0 
50 5.0951 2.91312 0 
51 5.66348 1.96189 0 
53 6.79618 1.96189 0 
52 6.22786 2.91303 0 
55 7.92887 1.96189 0 
54 7.36081 2.91297 0 
56 8.49389 2.91294 0 
57 9.06157 1.96189 0 
58 9.62708 2.91292 0 
59 10.1943 1.96189 0 
60 10.7603 2.91291 0 
61 11.327 1.96189 0 
63 12.4597 1.96189 0 
62 11.8936 2.91291 0 
65 13.5924 1.96189 0 
64 13.0268 2.91292 0 
66 14.16 2.91294 0 
67 14.7251 1.96189 0 
68 15.2931 2.91297 0 
69 15.8577 1.96189 0 
70 16.4261 2.91303 0 
71 16.9904 1.96189 0 
73 18.1231 1.96189 0 
72 17.5588 2.91312 0 
75 19.2558 1.96189 0 
74 18.6914 2.91324 0 
77 20.3885 1.96189 0 
76 19.8237 2.91336 0 
78 20.9559 2.91346 0 
79 21.5212 1.96189 0 
80 22.0879 2.91352 0 
83 1.13134 3.86519 0 
85 2.26284 3.86494 0 
87 3.39464 3.8646 0 
89 4.52682 3.86422 0 
91 5.65943 3.86389 0 
93 6.79243 3.86362 0 
95 7.92576 3.86344 0 
97 9.05936 3.86332 0 
99 10.1931 3.86326 0 
101 11.327 3.86325 0 
103 12.4608 3.86326 0 
105 13.5946 3.86332 0 
107 14.7282 3.86344 0 
109 15.8615 3.86362 0 
111 16.9945 3.86389 0 
113 18.1271 3.86422 0 
115 19.2593 3.8646 0 
117 20.3911 3.86494 0 
81 22.6539 3.86528 0 
119 21.5226 3.86519 0 
82 0.565328 4.81744 0 
123 1.13002 5.7699 0 
84 1.6961 4.8171 0 
125 2.26031 5.76911 0 
86 2.82719 4.8165 0 
88 3.95878 4.81575 0 
127 3.39113 5.76795 0 
90 5.09098 4.815 0 
129 4.52268 5.76665 0 
131 5.65507 5.7654 0 
92 6.22381 4.81435 0 
133 6.78831 5.76436 0 
94 7.35721 4.81385 0 
135 7.9223 5.76359 0 
96 8.49109 4.8135 0 
98 9.6253 4.8133 0 
137 9.05686 5.76308 0 
100 10.7597 4.81321 0 
139 10.1918 5.7628 0 
141 11.327 5.76272 0 
102 11.8942 4.81321 0 
143 12.4621 5.7628 0 
104 13.0286 4.8133 0 
145 13.5971 5.76308 0 
106 14.1628 4.8135 0 
108 15.2967 4.81385 0 
147 14.7316 5.76359 0 
110 16.4301 4.81435 0 
149 15.8656 5.76436 0 
112 17.5629 4.815 0 
151 16.9989 5.7654 0 
153 18.1312 5.76665 0 
114 18.6951 4.81575 0 
155 19.2628 5.76795 0 
116 19.8267 4.8165 0 
118 20.9578 4.8171 0 
157 20.3936 5.76911 0 
121 22.6539 5.77018 0 
120 22.0886 4.81744 0 
159 21.5239 5.7699 0 
122 0.564656 6.72334 0 
124 1.69412 6.72253 0 
126 2.82405 6.72104 0 
128 3.95473 6.71911 0 
130 5.0864 6.71708 0 
132 6.21918 6.71524 0 
134 7.35303 6.71377 0 
136 8.48778 6.71273 0 
138 9.62319 6.71208 0 
140 10.759 6.71178 0 
142 11.8949 6.71178 0 
144 13.0307 6.71208 0 
146 14.1661 6.71273 0 
148 15.3009 6.71377 0 
150 16.4347 6.71524 0 
152 17.5675 6.71708 0 
154 18.6992 6.71911 0 
156 19.8299 6.72104 0 
158 20.9598 6.72253 0 
160 22.0893 6.72334 0 
163 1.12869 7.67676 0 
162 0.564018 8.6317 0 
165 2.25771 7.67513 0 
164 1.69221 8.63025 0 
166 2.82089 8.62751 0 
167 3.38739 7.67268 0 
168 3.95042 8.6238 0 
169 4.51806 7.66976 0 
171 5.65003 7.66684 0 
170 5.08122 8.61965 0 
173 6.78339 7.66432 0 
172 6.21366 8.61569 0 
175 7.91807 7.66241 0 
174 7.34784 8.61245 0 
176 8.48358 8.61013 0 
177 9.05378 7.66113 0 
178 9.62047 8.6087 0 
179 10.1902 7.66042 0 
181 11.327 7.66019 0 
180 10.7581 8.60802 0 
183 12.4637 7.66042 0 
182 11.8959 8.60802 0 
185 13.6001 7.66113 0 
184 13.0335 8.6087 0 
186 14.1703 8.61013 0 
187 14.7359 7.66241 0 
188 15.3061 8.61245 0 
189 15.8705 7.66432 0 
190 16.4403 8.61569 0 
191 17.0039 7.66684 0 
193 18.1359 7.66976 0 
192 17.5727 8.61965 0 
195 19.2665 7.67268 0 
194 18.7035 8.6238 0 
196 19.833 8.62751 0 
197 20.3962 7.67513 0 
198 20.9617 8.63025 0 
161 22.6539 7.67732 0 
199 21.5252 7.67676 0 
200 22.0899 8.6317 0 
203 1.12754 9.58627 0 
205 2.25536 9.58362 0 
207 3.38379 9.57944 0 
209 4.51327 9.57417 0 
211 5.64431 9.56852 0 
213 6.7774 9.56338 0 
215 7.91266 9.55941 0 
217 9.04974 9.55676 0 
219 10.188 9.55531 0 
221 11.327 9.55485 0 
223 12.4659 9.55531 0 
225 13.6042 9.55676 0 
227 14.7413 9.55941 0 
229 15.8765 9.56338 0 
231 17.0096 9.56852 0 
233 18.1407 9.57417 0 
235 19.2701 9.57944 0 
237 20.3986 9.58362 0 
201 22.6539 9.58717 0 
239 21.5264 9.58627 0 
202 0.563551 10.5429 0 
243 1.12691 11.4987 0 
204 1.69076 10.5408 0 
206 2.81833 10.5366 0 
245 2.25397 11.4951 0 
208 3.94659 10.5307 0 
247 3.38137 11.4891 0 
210 5.07605 10.5235 0 
249 4.50949 11.481 0 
251 5.63893 11.4716 0 
212 6.20743 10.5161 0 
253 6.77068 11.462 0 
214 7.34139 10.5096 0 
255 7.90578 11.4541 0 
216 8.47804 10.505 0 
218 9.61679 10.5022 0 
257 9.04423 11.4489 0 
220 10.7568 10.5009 0 
259 10.185 11.4461 0 
261 11.327 11.4453 0 
222 11.8972 10.5009 0 
263 12.4689 11.4461 0 
224 13.0371 10.5022 0 
265 13.6097 11.4489 0 
226 14.1759 10.505 0 
228 15.3125 10.5096 0 
267 14.7481 11.4541 0 
230 16.4465 10.5161 0 
269 15.8832 11.462 0 
271 17.015 11.4716 0 
232 17.5779 10.5235 0 
273 18.1444 11.481 0 
234 18.7073 10.5307 0 
275 19.2725 11.4891 0 
236 19.8356 10.5366 0 
238 20.9632 10.5408 0 
277 20.4 11.4951 0 
240 22.0904 10.5429 0 
241 22.6539 11.5 0 
279 21.527 11.4987 0 
242 0.563475 12.4571 0 
244 1.69044 12.4543 0 
246 2.8175 12.4489 0 
248 3.94481 12.4408 0 
250 5.07274 12.4302 0 
252 6.20207 12.418 0 
254 7.33419 12.4057 0 
256 8.47076 12.3964 0 
258 9.61156 12.3909 0 
260 10.7549 12.3885 0 
262 11.899 12.3885 0 
264 13.0424 12.3909 0 
266 14.1832 12.3964 0 
268 15.3197 12.4057 0 
270 16.4519 12.418 0 
272 17.5812 12.4302 0 
274 18.7091 12.4408 0 
276 19.8364 12.4489 0 
278 20.9635 12.4543 0 
280 22.0904 12.4571 0 
283 1.12732 13.4139 0 
282 0.564046 14.3734 0 
285 2.25458 13.4095 0 
284 1.69205 14.3704 0 
286 2.81983 14.3641 0 
287 3.38177 13.4021 0 
288 3.94727 14.3545 0 
289 4.50899 13.3916 0 
290 5.07441 14.3413 0 
291 5.63664 13.3781 0 
293 6.76564 13.3624 0 
292 6.20159 14.3244 0 
295 7.89804 13.3469 0 
294 7.3299 14.3043 0 
296 8.46236 14.2845 0 
297 9.03659 13.336 0 
298 9.60372 14.2724 0 
299 10.1805 13.3307 0 
301 11.327 13.3291 0 
300 10.7519 14.2678 0 
303 12.4734 13.3307 0 
302 11.902 14.2678 0 
305 13.6173 13.336 0 
304 13.0502 14.2724 0 
306 14.1916 14.2845 0 
307 14.7559 13.3469 0 
308 15.324 14.3043 0 
309 15.8883 13.3624 0 
310 16.4523 14.3244 0 
311 17.0173 13.3781 0 
313 18.1449 13.3916 0 
312 17.5795 14.3413 0 
315 19.2722 13.4021 0 
314 18.7067 14.3545 0 
316 19.8341 14.3641 0 
317 20.3993 13.4095 0 
318 20.9619 14.3704 0 
281 22.6539 13.4154 0 
319 21.5266 13.4139 0 
320 22.0899 14.3734 0 
323 1.12925 15.3309 0 
325 2.25826 15.3261 0 
327 3.38679 15.318 0 
329 4.51464 15.3061 0 
331 5.6417 15.2899 0 
333 6.76817 15.2689 0 
335 7.89521 15.2431 0 
336 8.46226 16.178 0 
337 9.02732 15.2177 0 
338 9.59338 16.1446 0 
339 10.1729 15.2047 0 
341 11.327 15.2018 0 
340 10.7459 16.1318 0 
343 12.481 15.2047 0 
342 11.908 16.1318 0 
345 13.6266 15.2177 0 
344 13.0605 16.1446 0 
347 14.7587 15.2431 0 
346 14.1917 16.178 0 
349 15.8858 15.2689 0 
351 17.0122 15.2899 0 
353 18.1393 15.3061 0 
355 19.2671 15.318 0 
357 20.3957 15.3261 0 
321 22.6539 15.3324 0 
359 21.5247 15.3309 0 
322 0.565451 16.2906 0 
363 1.13288 17.2478 0 
324 1.69621 16.2875 0 
326 2.82655 16.281 0 
365 2.26551 17.2431 0 
328 3.95615 16.271 0 
367 3.39758 17.2349 0 
330 5.08466 16.2567 0 
369 4.52872 17.2229 0 
371 5.65842 17.2061 0 
332 6.21175 16.2373 0 
373 6.78601 17.1832 0 
334 7.33731 16.2115 0 
375 7.91075 17.1517 0 
377 9.03259 17.1075 0 
379 10.162 17.0624 0 
381 11.327 17.0509 0 
383 12.4919 17.0624 0 
385 13.6213 17.1075 0 
348 15.3166 16.2115 0 
387 14.7432 17.1517 0 
350 16.4422 16.2373 0 
389 15.8679 17.1832 0 
352 17.5693 16.2567 0 
391 16.9955 17.2061 0 
393 18.1252 17.2229 0 
354 18.6978 16.271 0 
395 19.2563 17.2349 0 
356 19.8274 16.281 0 
358 20.9577 16.2875 0 
397 20.3884 17.2431 0 
360 22.0885 16.2906 0 
361 22.6539 17.2493 0 
399 21.521 17.2478 0 
362 0.567616 18.2068 0 
402 1.13772 19.167 0 
364 1.70276 18.2037 0 
403 2.27539 19.1624 0 
366 2.83763 18.1974 0 
368 3.97198 18.1876 0 
404 3.41295 19.1544 0 
370 5.10545 18.1735 0 
405 4.55029 19.1426 0 
406 5.68726 19.1262 0 
372 6.23744 18.1541 0 
407 6.82359 19.1036 0 
374 7.36694 18.1272 0 
408 7.95857 19.0719 0 
376 8.49219 18.0889 0 
378 9.61048 18.0281 0 
409 9.09026 19.0242 0 
380 10.7394 17.9652 0 
410 10.2108 18.9316 0 
411 11.327 18.8544 0 
382 11.9145 17.9652 0 
412 12.4432 18.9316 0 
384 13.0434 18.0281 0 
413 13.5637 19.0242 0 
386 14.1617 18.0889 0 
388 15.287 18.1272 0 
414 14.6954 19.0719 0 
390 16.4165 18.1541 0 
415 15.8303 19.1036 0 
416 16.9667 19.1262 0 
392 17.5485 18.1735 0 
417 18.1036 19.1426 0 
394 18.6819 18.1876 0 
418 19.241 19.1544 0 
396 19.8163 18.1974 0 
398 20.9512 18.2037 0 
419 20.3785 19.1624 0 
401 22.6539 19.1685 0 
400 22.0863 18.2068 0 
420 21.5162 19.167 0 
ITEM: TIMESTEP
72
ITEM: NUMBER OF ATOMS
420
ITEM: BOX BOUNDS pp ss pp
0 22.6539
-0.00196189 19.1704
-0.283174 0.283174
ITEM: ATOMS id x y z 
1 0 0 0 
2 0.566348 0.980944 0 
3 1.1327 0 0 
4 1.69904 0.980944 0 
5 2.26539 0 0 
6 2.83174 0.980944 0 
7 3.39809 0 0 
8 3.96444 0.980944 0 
9 4.53078 0 0 
10 5.09713 0.980944 0 
11 5.66348 0 0 
12 6.22983 0.980944 0 
13 6.79618 0 0 
14 7.36253 0.980944 0 
15 7.92887 0 0 
16 8.49522 0.980944 0 
17 9.06157 0 0 
18 9.62792 0.980944 0 
19 10.1943 0 0 
20 10.7606 0.980944 0 
21 11.327 0 0 
22 11.8933 0.980944 0 
23 12.4597 0 0 
24 13.026 0.980944 0 
25 13.5924 0 0 
26 14.1587 0.980944 0 
27 14.7251 0 0 
28 15.2914 0.980944 0 
29 15.8577 0 0 
30 16.4241 0.980944 0 
31 16.9904 0 0 
32 17.5568 0.980944 0 
33 18.1231 0 0 
34 18.6895 0.980944 0 
35 19.2558 0 0 
36 19.8222 0.980944 0 
37 20.3885 0 0 
38 20.9549 0.980944 0 
39 21.5212 0 0 
40 22.0876 0.980944 0 
41 0 1.96189 0 
43 1.1327 1.96189 0 
42 0.565885 2.91133 0 
45 2.26539 1.96189 0 
44 1.69772 2.91126 0 
46 2.82972 2.91113 0 
47 3.39809 1.96189 0 
48 3.96198 2.911 0 
49 4.53078 1.96189 0 
50 5.09452 2.91088 0 
51 5.66348 1.96189 0 
53 6.79618 1.96189 0 
52 6.22733 2.91081 0 
55 7.92887 1.96189 0 
54 7.36036 2.91077 0 
56 8.49356 2.91077 0 
57 9.06157 1.96189 0 
58 9.62688 2.91077 0 
59 10.1943 1.96189 0 
60 10.7603 2.91078 0 
61 11.327 1.96189 0 
63 12.4597 1.96189 0 
62 11.8937 2.91078 0 
65 13.5924 1.96189 0 
64 13.027 2.91077 0 
66 14.1604 2.91077 0 
67 14.7251 1.96189 0 
68 15.2936 2.91077 0 
69 15.8577 1.96189 0 
70 16.4266 2.91081 0 
71 16.9904 1.96189 0 
73 18.1231 1.96189 0 
72 17.5594 2.91088 0 
75 19.2558 1.96189 0 
74 18.6919 2.911 0 
77 20.3885 1.96189 0 
76 19.8242 2.91113 0 
78 20.9562 2.91126 0 
79 21.5212 1.96189 0 
80 22.088 2.91133 0 
83 1.13091 3.86091 0 
81 1.51883e-010 3.86103 0 
85 2.26203 3.8606 0 
87 3.39357 3.86017 0 
89 4.52563 3.85973 0 
91 5.65825 3.85937 0 
93 6.79138 3.85912 0 
95 7.92493 3.85897 0 
97 9.05878 3.85891 0 
99 10.1928 3.85888 0 
101 11.327 3.85888 0 
103 12.4611 3.85888 0 
105 13.5951 3.85891 0 
107 14.729 3.85897 0 
109 15.8625 3.85912 0 
111 16.9957 3.85937 0 
113 18.1283 3.85973 0 
115 19.2604 3.86017 0 
117 20.3919 3.8606 0 
119 21.523 3.86091 0 
82 0.564993 4.81126 0 
123 1.12913 5.76191 0 
121 2.96595e-010 5.76229 0 
84 1.69513 4.81082 0 
125 2.25863 5.76086 0 
86 2.82572 4.81004 0 
88 3.95699 4.80911 0 
127 3.38885 5.75936 0 
90 5.08909 4.80822 0 
129 4.52007 5.75772 0 
131 5.65244 5.75624 0 
92 6.22202 4.8075 0 
133 6.78592 5.75509 0 
94 7.35569 4.80701 0 
135 7.92035 5.75432 0 
96 8.48994 4.80671 0 
98 9.62459 4.80656 0 
137 9.05551 5.75386 0 
100 10.7595 4.8065 0 
139 10.1911 5.75363 0 
141 11.327 5.75356 0 
102 11.8944 4.8065 0 
143 12.4628 5.75363 0 
104 13.0293 4.80656 0 
145 13.5984 5.75386 0 
106 14.164 4.80671 0 
108 15.2982 4.80701 0 
147 14.7336 5.75432 0 
110 16.4319 4.8075 0 
149 15.868 5.75509 0 
112 17.5648 4.80822 0 
151 17.0015 5.75624 0 
153 18.1339 5.75772 0 
114 18.6969 4.80911 0 
155 19.2651 5.75936 0 
116 19.8282 4.81004 0 
118 20.9588 4.81082 0 
157 20.3953 5.76086 0 
120 22.0889 4.81126 0 
159 21.5248 5.76191 0 
122 0.564092 6.71386 0 
124 1.69248 6.71278 0 
126 2.82149 6.7108 0 
128 3.95152 6.70831 0 
130 5.0829 6.70576 0 
132 6.21578 6.70357 0 
134 7.35008 6.70195 0 
136 8.48552 6.70089 0 
138 9.62179 6.7003 0 
140 10.7585 6.70003 0 
142 11.8954 6.70003 0 
144 13.0321 6.7003 0 
146 14.1684 6.70089 0 
148 15.3038 6.70195 0 
150 16.4381 6.70357 0 
152 17.571 6.70576 0 
154 18.7024 6.70831 0 
156 19.8324 6.7108 0 
158 20.9614 6.71278 0 
160 22.0898 6.71386 0 
163 1.12736 7.66579 0 
162 0.563243 8.61974 0 
161 4.30739e-010 7.66654 0 
165 2.25514 7.66362 0 
164 1.68993 8.61782 0 
166 2.81724 8.61419 0 
167 3.3838 7.66038 0 
168 3.94568 8.6093 0 
169 4.51381 7.6566 0 
171 5.64557 7.65295 0 
170 5.07584 8.60392 0 
173 6.77925 7.64997 0 
172 6.20822 8.59899 0 
175 7.91465 7.64787 0 
174 7.34299 8.59519 0 
176 8.47982 8.59267 0 
177 9.05137 7.64658 0 
178 9.61812 8.59123 0 
179 10.189 7.64591 0 
180 10.7573 8.59059 0 
181 11.327 7.6457 0 
183 12.465 7.64591 0 
182 11.8967 8.59059 0 
185 13.6026 7.64658 0 
184 13.0358 8.59123 0 
186 14.1741 8.59267 0 
187 14.7393 7.64787 0 
188 15.3109 8.59519 0 
189 15.8747 7.64997 0 
190 16.4457 8.59899 0 
191 17.0083 7.65295 0 
193 18.1401 7.6566 0 
192 17.5781 8.60392 0 
195 19.2701 7.66038 0 
194 18.7082 8.6093 0 
196 19.8367 8.61419 0 
197 20.3988 7.66362 0 
198 20.964 8.61782 0 
199 21.5266 7.66579 0 
200 22.0907 8.61974 0 
203 1.12582 9.5732 0 
201 5.53914e-010 9.5744 0 
205 2.252 9.5697 0 
207 3.37896 9.56418 0 
209 4.50729 9.55725 0 
211 5.63772 9.54995 0 
213 6.77099 9.54357 0 
215 7.90722 9.53896 0 
217 9.04586 9.53613 0 
219 10.186 9.53469 0 
221 11.327 9.53425 0 
223 12.4679 9.53469 0 
225 13.6081 9.53613 0 
227 14.7467 9.53896 0 
229 15.8829 9.54357 0 
231 17.0162 9.54995 0 
233 18.1466 9.55725 0 
235 19.275 9.56418 0 
237 20.4019 9.5697 0 
239 21.5281 9.5732 0 
202 0.562625 10.5294 0 
243 1.12499 11.4845 0 
241 6.64223e-010 11.4861 0 
204 1.68801 10.5266 0 
206 2.81383 10.5211 0 
245 2.25015 11.4797 0 
208 3.94052 10.5133 0 
247 3.37573 11.4719 0 
210 5.06878 10.5039 0 
249 4.50219 11.4613 0 
251 5.63035 11.4489 0 
212 6.19961 10.4943 0 
253 6.76162 11.4365 0 
214 7.33404 10.4863 0 
255 7.89758 11.4269 0 
216 8.47218 10.481 0 
218 9.61307 10.4781 0 
257 9.03821 11.4211 0 
220 10.7555 10.4768 0 
259 10.1819 11.4183 0 
261 11.327 11.4175 0 
222 11.8984 10.4768 0 
263 12.472 11.4183 0 
224 13.0409 10.4781 0 
265 13.6157 11.4211 0 
226 14.1817 10.481 0 
228 15.3199 10.4863 0 
267 14.7563 11.4269 0 
230 16.4543 10.4943 0 
269 15.8923 11.4365 0 
271 17.0236 11.4489 0 
232 17.5851 10.5039 0 
273 18.1517 11.4613 0 
234 18.7134 10.5133 0 
275 19.2782 11.4719 0 
236 19.8401 10.5211 0 
238 20.9659 10.5266 0 
277 20.4038 11.4797 0 
240 22.0913 10.5294 0 
279 21.5289 11.4845 0 
242 0.562516 12.4429 0 
244 1.68756 12.4394 0 
246 2.8127 12.4323 0 
248 3.93812 12.4217 0 
250 5.06428 12.4079 0 
252 6.19221 12.3918 0 
254 7.3239 12.376 0 
256 8.46186 12.3647 0 
258 9.60576 12.3587 0 
260 10.7529 12.3564 0 
262 11.901 12.3564 0 
264 13.0482 12.3587 0 
266 14.1921 12.3647 0 
268 15.33 12.376 0 
270 16.4617 12.3918 0 
272 17.5896 12.4079 0 
274 18.7158 12.4217 0 
276 19.8412 12.4323 0 
278 20.9664 12.4394 0 
280 22.0914 12.4429 0 
283 1.12549 13.3995 0 
282 0.56324 14.3594 0 
281 7.5848e-010 13.4014 0 
285 2.2509 13.3938 0 
284 1.68961 14.3554 0 
286 2.81566 14.3474 0 
287 3.37618 13.3841 0 
288 3.94125 14.3349 0 
289 4.50146 13.3704 0 
290 5.06639 14.3178 0 
291 5.6272 13.3528 0 
293 6.75461 13.3321 0 
292 6.19148 14.2957 0 
295 7.88659 13.3122 0 
294 7.31788 14.2694 0 
296 8.44987 14.244 0 
297 9.02726 13.2992 0 
298 9.59436 14.2297 0 
299 10.1755 13.2937 0 
300 10.7486 14.2254 0 
301 11.327 13.2923 0 
303 12.4784 13.2937 0 
302 11.9053 14.2254 0 
305 13.6267 13.2992 0 
304 13.0596 14.2297 0 
306 14.204 14.244 0 
307 14.7673 13.3122 0 
308 15.336 14.2694 0 
309 15.8993 13.3321 0 
310 16.4624 14.2957 0 
311 17.0267 13.3528 0 
313 18.1525 13.3704 0 
312 17.5875 14.3178 0 
315 19.2777 13.3841 0 
314 18.7127 14.3349 0 
316 19.8383 14.3474 0 
317 20.403 13.3938 0 
318 20.9643 14.3554 0 
319 21.5284 13.3995 0 
320 22.0907 14.3594 0 
323 1.12797 15.3167 0 
321 8.34873e-010 15.3187 0 
325 2.25561 15.3105 0 
327 3.38262 15.3 0 
329 4.50872 15.2847 0 
331 5.63373 15.2637 0 
333 6.75787 15.2364 0 
335 7.88254 15.2027 0 
336 8.44953 16.131 0 
334 7.32762 16.1746 0 
337 9.01407 15.1703 0 
338 9.57998 16.089 0 
339 10.1643 15.1553 0 
340 10.7395 16.0741 0 
341 11.327 15.1528 0 
343 12.4896 15.1553 0 
342 11.9144 16.0741 0 
345 13.6399 15.1703 0 
344 13.0739 16.089 0 
347 14.7714 15.2027 0 
346 14.2044 16.131 0 
348 15.3263 16.1746 0 
349 15.8961 15.2364 0 
351 17.0202 15.2637 0 
353 18.1452 15.2847 0 
355 19.2713 15.3 0 
357 20.3983 15.3105 0 
359 21.526 15.3167 0 
322 0.565049 16.2769 0 
363 1.13266 17.2338 0 
361 8.89574e-010 17.2358 0 
324 1.69496 16.2729 0 
326 2.82432 16.2646 0 
365 2.26498 17.2277 0 
328 3.95269 16.2516 0 
367 3.39658 17.2173 0 
330 5.07963 16.2332 0 
369 4.52695 17.2018 0 
371 5.65543 17.1802 0 
332 6.20467 16.2081 0 
373 6.78112 17.1506 0 
375 7.90304 17.1099 0 
377 9.02095 17.0522 0 
379 10.1501 16.9969 0 
381 11.327 16.9819 0 
383 12.5038 16.9969 0 
385 13.633 17.0522 0 
387 14.7509 17.1099 0 
350 16.4493 16.2081 0 
389 15.8728 17.1506 0 
352 17.5743 16.2332 0 
391 16.9985 17.1802 0 
393 18.127 17.2018 0 
354 18.7012 16.2516 0 
395 19.2573 17.2173 0 
356 19.8296 16.2646 0 
358 20.959 16.2729 0 
397 20.3889 17.2277 0 
360 22.0889 16.2769 0 
399 21.5213 17.2338 0 
362 0.567848 18.1931 0 
402 1.13891 19.1527 0 
401 9.19633e-010 19.1546 0 
364 1.70343 18.1891 0 
403 2.27776 19.1467 0 
366 2.83866 18.1811 0 
368 3.97321 18.1684 0 
404 3.41646 19.1365 0 
370 5.10663 18.1502 0 
405 4.55491 19.1213 0 
406 5.69293 19.1001 0 
372 6.23813 18.1252 0 
407 6.83017 19.071 0 
374 7.36638 18.0906 0 
408 7.96578 19.0299 0 
376 8.4891 18.041 0 
378 9.60258 17.9616 0 
409 9.09717 18.9678 0 
380 10.7347 17.8858 0 
410 10.2131 18.8462 0 
411 11.327 18.7645 0 
382 11.9192 17.8858 0 
412 12.4409 18.8462 0 
384 13.0513 17.9616 0 
413 13.5568 18.9678 0 
386 14.1648 18.041 0 
388 15.2875 18.0906 0 
414 14.6881 19.0299 0 
390 16.4158 18.1252 0 
415 15.8238 19.071 0 
416 16.961 19.1001 0 
392 17.5473 18.1502 0 
417 18.099 19.1213 0 
394 18.6807 18.1684 0 
418 19.2375 19.1365 0 
396 19.8153 18.1811 0 
398 20.9505 18.1891 0 
419 20.3762 19.1467 0 
400 22.0861 18.1931 0 
420 21.515 19.1527 0 
ITEM: TIMESTEP
76
ITEM: NUMBER OF ATOMS
420
ITEM: BOX BOUNDS pp ss pp
0 22.6539
-0.00196189 19.1566
-0.283174 0.283174
ITEM: ATOMS id x y z 