ITEM: TIMESTEP
62
ITEM: NUMBER OF ATOMS
420
ITEM: BOX BOUNDS pp ss pp
0 22.6539
-0.00196189 19.2198
-0.283174 0.283174
ITEM: ATOMS id fx fy fz 
1 0 0 0 
2 0 0 0 
3 0 0 0 
4 0 0 0 
5 0 0 0 
6 0 0 0 
7 0 0 0 
8 0 0 0 
9 0 0 0 
10 0 0 0 
11 0 0 0 
12 0 0 0 
13 0 0 0 
14 0 0 0 
15 0 0 0 
16 0 0 0 
17 0 0 0 
18 0 0 0 
19 0 0 0 
20 0 0 0 
21 0 0 0 
22 0 0 0 
23 0 0 0 
24 0 0 0 
25 0 0 0 
26 0 0 0 
27 0 0 0 
28 0 0 0 
29 0 0 0 
30 0 0 0 
31 0 0 0 
32 0 0 0 
33 0 0 0 
34 0 0 0 
35 0 0 0 
36 0 0 0 
37 0 0 0 
38 0 0 0 
39 0 0 0 
40 0 0 0 
41 0 0 0 
43 0 0 0 
42 9.92034e-011 1.22512e-010 0 
45 0 0 0 
44 -1.31403e-011 -3.12863e-011 0 
46 -1.06107e-012 -3.05381e-011 0 
47 0 0 0 
48 1.34039e-010 2.62518e-010 0 
49 0 0 0 
50 -3.91904e-012 -1.255e-010 0 
51 0 0 0 
53 0 0 0 
52 7.05615e-011 1.36746e-010 0 
55 0 0 0 
54 1.32875e-010 -1.28305e-010 0 
56 6.92621e-011 -1.04898e-010 0 
57 0 0 0 
58 8.01969e-012 8.67872e-011 0 
59 0 0 0 
60 -1.12981e-010 -1.30194e-011 0 
61 0 0 0 
63 0 0 0 
62 1.36777e-010 5.03925e-012 0 
65 0 0 0 
64 -1.11941e-011 1.13929e-010 0 
66 -2.23706e-011 -2.59566e-011 0 
67 0 0 0 
68 -1.18204e-010 -4.0836e-011 0 
69 0 0 0 
70 -4.89141e-011 2.37311e-010 0 
71 0 0 0 
73 0 0 0 
72 -2.00655e-011 -6.03769e-011 0 
75 0 0 0 
74 -1.16354e-010 2.65113e-010 0 
77 0 0 0 
76 3.79565e-011 7.17978e-011 0 
78 3.38968e-011 -5.8098e-011 0 
79 0 0 0 
80 -7.25704e-011 1.59418e-010 0 
83 -2.38405e-010 -1.20298e-010 0 
85 1.89613e-010 -2.06727e-010 0 
87 8.85236e-012 2.12871e-011 0 
89 -1.25575e-010 -1.59854e-010 0 
91 2.40131e-010 -2.0847e-010 0 
93 1.78114e-010 -6.1367e-011 0 
95 1.5166e-011 2.62682e-011 0 
97 -2.16662e-011 2.30173e-011 0 
99 1.23043e-011 6.51485e-011 0 
101 1.84139e-011 7.15394e-011 0 
103 1.37294e-011 1.84275e-011 0 
105 3.50099e-011 -9.67948e-011 0 
107 5.89429e-012 -1.15579e-010 0 
109 -1.22551e-010 -2.1907e-010 0 
111 -2.15324e-010 -3.84163e-010 0 
113 1.82164e-010 -2.34183e-010 0 
115 4.47556e-011 -4.27833e-011 0 
117 -1.54413e-010 -2.19332e-010 0 
81 2.0181e-011 -1.06714e-010 0 
119 2.65089e-010 -1.44174e-010 0 
82 1.2277e-010 2.65064e-010 0 
121 4.45002e-012 2.47922e-010 0 
123 1.32899e-010 -1.06554e-010 0 
84 1.4565e-011 4.00796e-012 0 
125 -3.77219e-011 9.98275e-012 0 
86 1.75964e-010 -9.00067e-011 0 
88 -3.97456e-011 -1.19586e-010 0 
127 2.3533e-010 -2.01151e-010 0 
90 -9.03229e-011 1.19566e-010 0 
129 5.65831e-011 1.32284e-010 0 
92 1.5036e-010 2.92063e-011 0 
131 9.27242e-011 9.68227e-011 0 
133 -1.23549e-010 2.99327e-010 0 
94 -1.38774e-010 -6.77455e-011 0 
135 3.22517e-011 6.24251e-011 0 
96 -5.43754e-011 5.88471e-011 0 
98 -1.77838e-011 8.08626e-011 0 
137 6.13605e-011 1.47117e-010 0 
100 1.18087e-011 -1.04126e-010 0 
139 -1.60713e-010 4.97174e-011 0 
141 4.73188e-011 -6.7653e-011 0 
102 3.04533e-011 -4.55103e-011 0 
143 2.18422e-010 -1.08359e-010 0 
104 9.09562e-011 2.35398e-010 0 
145 -4.14472e-012 -8.34052e-011 0 
106 1.21471e-010 2.64556e-010 0 
108 2.05358e-010 1.76365e-010 0 
147 3.26031e-011 -2.9431e-010 0 
110 -1.05154e-010 2.81141e-010 0 
149 1.87697e-010 -1.65166e-011 0 
112 1.01255e-010 2.72516e-010 0 
151 3.791e-011 -1.9512e-010 0 
153 2.3627e-011 -9.33209e-011 0 
114 7.94539e-011 2.79891e-011 0 
155 -1.38015e-010 -2.79739e-010 0 
116 -1.12566e-010 -2.25724e-011 0 
118 6.6325e-011 6.72331e-011 0 
157 1.11995e-010 -6.35698e-011 0 
120 -8.19074e-011 2.14641e-010 0 
159 -4.55209e-011 -1.48959e-010 0 
122 5.85449e-011 -4.59622e-011 0 
124 -2.33097e-012 8.47291e-011 0 
126 3.55334e-011 4.23071e-011 0 
128 2.28002e-010 5.77425e-011 0 
130 5.31455e-012 -1.17994e-010 0 
132 -6.9764e-011 -2.73344e-010 0 
134 -1.25286e-010 -1.9442e-010 0 
136 -1.93796e-011 -2.65109e-011 0 
138 -6.29229e-011 5.29133e-011 0 
140 7.70674e-011 2.83658e-010 0 
142 1.40916e-011 4.14093e-010 0 
144 1.12164e-010 3.51454e-010 0 
146 1.38208e-010 3.53004e-010 0 
148 1.60188e-010 2.7473e-010 0 
150 1.61361e-010 8.41178e-011 0 
152 3.78783e-011 1.67319e-010 0 
154 -1.25611e-010 1.921e-010 0 
156 6.16998e-012 1.21399e-010 0 
158 1.05112e-010 9.09696e-011 0 
160 4.50903e-011 -8.84098e-012 0 
163 9.53331e-011 9.54955e-011 0 
162 3.50303e-011 -2.92289e-010 0 
165 9.14927e-011 2.20664e-010 0 
164 3.85395e-011 -1.89079e-010 0 
167 2.14841e-011 1.68197e-010 0 
166 -1.23482e-010 -3.43477e-010 0 
168 2.02405e-010 -2.14234e-010 0 
169 -1.7679e-010 2.98106e-010 0 
171 -2.00319e-011 2.6042e-010 0 
170 8.14628e-011 -6.64459e-011 0 
173 -1.16211e-010 4.49951e-010 0 
172 -2.5668e-010 -2.4929e-010 0 
175 4.5272e-011 4.33506e-010 0 
174 -2.49127e-011 -3.9039e-010 0 
176 2.49623e-010 -3.80484e-010 0 
177 4.99771e-011 1.75108e-010 0 
178 -2.71626e-011 -3.48121e-011 0 
179 -8.6846e-011 -9.98707e-011 0 
181 6.01086e-011 -1.66178e-010 0 
180 1.79643e-010 -5.61071e-011 0 
183 2.07949e-010 -3.74564e-010 0 
182 -7.89957e-011 6.09343e-011 0 
185 6.81492e-012 -2.3805e-010 0 
184 1.11095e-010 3.33638e-010 0 
186 -1.58146e-010 1.47947e-010 0 
187 5.96513e-011 -1.13037e-010 0 
188 1.22358e-010 1.56388e-010 0 
189 2.42262e-010 -2.89683e-011 0 
191 1.30352e-010 -1.3289e-010 0 
190 3.54767e-010 2.39782e-010 0 
193 2.9976e-010 6.00731e-011 0 
192 -4.78191e-012 2.23898e-010 0 
195 9.31246e-011 5.96354e-011 0 
194 -5.33765e-011 -2.62459e-011 0 
196 1.98071e-010 -2.74812e-010 0 
197 7.7615e-013 1.46367e-010 0 
198 1.16028e-010 -1.77054e-010 0 
161 5.4804e-011 2.085e-010 0 
199 1.65173e-011 6.97476e-011 0 
200 9.32534e-011 -2.79317e-010 0 
201 3.67129e-011 -2.09215e-010 0 
203 -1.6814e-011 -2.17248e-011 0 
205 6.73306e-011 2.46736e-011 0 
207 1.01645e-010 1.57286e-010 0 
209 -4.5087e-011 1.36937e-010 0 
211 -2.2677e-011 2.82753e-010 0 
213 -9.4706e-011 3.32557e-010 0 
215 2.49481e-010 2.79613e-010 0 
217 9.37107e-011 1.53917e-010 0 
219 2.17064e-010 2.84535e-010 0 
221 4.87206e-011 -3.27452e-010 0 
223 -9.36423e-011 1.88835e-011 0 
225 7.28876e-011 -3.19349e-010 0 
227 -1.22358e-010 -2.47779e-010 0 
229 2.69386e-010 -2.22662e-010 0 
231 1.28747e-010 -1.06941e-010 0 
233 1.56612e-010 -6.69958e-011 0 
235 2.76544e-011 -2.94752e-012 0 
237 7.53245e-011 1.09193e-011 0 
239 1.74528e-010 -4.35358e-011 0 
202 8.26006e-012 -1.83932e-010 0 
243 3.75905e-011 8.54087e-011 0 
204 -2.44281e-011 4.43398e-011 0 
206 2.60436e-010 -2.39863e-010 0 
245 -7.54439e-011 1.20214e-011 0 
208 -7.72879e-011 -9.02462e-011 0 
247 1.03514e-010 -9.16563e-011 0 
210 1.93184e-010 -4.64707e-010 0 
249 1.2752e-010 3.20505e-010 0 
251 1.49451e-010 1.3976e-011 0 
212 3.56875e-011 -2.6851e-010 0 
253 -3.53211e-011 3.40259e-010 0 
214 1.79944e-010 -1.71071e-010 0 
255 1.91749e-010 3.30252e-010 0 
216 6.72286e-011 -1.86293e-010 0 
218 -1.58402e-010 -1.27884e-010 0 
257 5.52954e-012 2.31164e-010 0 
220 1.0141e-010 -1.39673e-010 0 
259 1.01418e-010 3.7453e-010 0 
222 2.72222e-011 -4.98903e-011 0 
261 7.71349e-011 -4.63448e-011 0 
263 2.0912e-011 1.8853e-010 0 
224 2.63604e-010 1.93257e-010 0 
226 1.38868e-011 2.93359e-010 0 
265 1.81271e-010 -1.68636e-010 0 
228 -8.90704e-011 3.53435e-010 0 
267 5.40788e-012 -1.6465e-010 0 
230 1.4309e-010 1.32384e-010 0 
269 1.72437e-010 -6.72535e-011 0 
271 2.18658e-011 -3.16338e-010 0 
232 -7.59112e-011 -2.16231e-010 0 
273 2.3097e-011 1.79294e-010 0 
234 1.92766e-010 4.29728e-011 0 
236 -9.84207e-011 -2.31289e-010 0 
275 2.57729e-011 -1.9464e-010 0 
238 1.551e-010 9.87292e-011 0 
277 2.10494e-010 -1.27374e-012 0 
240 1.31547e-010 -2.13012e-010 0 
241 9.02595e-011 2.6456e-010 0 
279 1.11725e-010 6.95205e-011 0 
242 3.02523e-010 1.36812e-010 0 
244 2.01978e-010 3.2188e-010 0 
246 2.09603e-010 -1.83356e-011 0 
248 -1.52198e-010 -9.20271e-011 0 
250 1.22555e-010 -1.23451e-010 0 
252 1.56944e-010 -2.6563e-010 0 
254 1.88376e-011 -1.04306e-010 0 
256 1.41138e-011 1.38839e-012 0 
258 1.926e-010 -1.13539e-010 0 
260 -4.20723e-011 -5.44052e-011 0 
262 1.87069e-010 -4.75124e-012 0 
264 -6.41567e-011 1.29407e-010 0 
266 9.33048e-011 3.43434e-010 0 
268 7.72983e-011 2.6528e-010 0 
270 -1.30555e-011 -1.95874e-011 0 
272 1.0527e-011 5.01653e-012 0 
274 3.26257e-010 -6.71635e-011 0 
276 -4.54891e-011 7.00302e-012 0 
278 -5.10952e-011 3.03999e-010 0 
280 -1.47257e-010 1.05231e-010 0 
281 8.83719e-011 -1.68368e-010 0 
283 -1.53519e-011 -1.4806e-010 0 
282 1.60459e-010 1.22697e-010 0 
285 -2.26496e-011 3.36824e-011 0 
284 1.54305e-010 -1.95439e-010 0 
287 2.95319e-010 -1.51877e-010 0 
286 4.57174e-011 1.15528e-010 0 
288 1.7506e-010 1.63232e-010 0 
289 4.73495e-010 -1.23617e-011 0 
290 2.66716e-010 -4.17353e-011 0 
291 1.78173e-010 -2.11899e-010 0 
293 1.80998e-010 1.84514e-010 0 
292 2.43575e-010 -1.35581e-010 0 
295 3.02222e-010 2.51531e-010 0 
294 1.85495e-010 -3.47301e-010 0 
297 6.22591e-011 3.69657e-011 0 
296 3.74326e-010 -2.59738e-011 0 
298 1.54681e-010 1.11831e-010 0 
299 5.86077e-011 3.17581e-010 0 
301 8.93643e-011 2.02775e-010 0 
300 1.72946e-011 -6.29368e-011 0 
303 7.9876e-011 2.73972e-010 0 
302 1.33898e-010 -1.19378e-010 0 
305 9.5056e-011 -1.54324e-010 0 
304 2.13209e-011 2.52652e-011 0 
306 -1.84571e-010 5.58158e-011 0 
307 -9.80472e-011 -7.67159e-012 0 
308 -6.51663e-011 -2.23432e-010 0 
309 2.40126e-011 -6.87582e-011 0 
310 -1.18148e-010 -4.64272e-011 0 
311 -1.33198e-011 -3.49894e-010 0 
313 -3.22891e-010 -8.26533e-011 0 
312 -1.13824e-010 -1.28091e-011 0 
315 -1.51846e-010 -1.74657e-010 0 
314 7.64577e-012 1.8312e-010 0 
316 1.22822e-010 6.85631e-011 0 
317 2.18432e-010 6.39398e-012 0 
318 1.79755e-011 -1.72628e-010 0 
319 1.63968e-010 -1.29857e-010 0 
320 -6.72722e-012 7.8066e-011 0 
321 9.69911e-011 1.29243e-010 0 
323 1.02648e-010 -8.36537e-011 0 
325 1.2499e-010 -2.34874e-010 0 
327 1.66183e-010 -1.02833e-010 0 
329 2.53975e-010 -1.59559e-010 0 
331 1.14256e-010 2.01122e-010 0 
333 1.52219e-010 -2.77988e-011 0 
335 9.15767e-011 -1.03129e-010 0 
337 1.38887e-010 -1.77222e-010 0 
339 1.12359e-010 -2.61486e-010 0 
341 1.12905e-010 1.6865e-010 0 
343 -1.00736e-011 -1.00922e-010 0 
345 2.83096e-011 -5.14247e-011 0 
347 4.72055e-011 -1.02237e-010 0 
349 7.60516e-011 -8.87466e-011 0 
351 2.34693e-011 1.39644e-010 0 
353 -6.74897e-011 -1.92713e-010 0 
355 -4.33776e-011 -8.58102e-011 0 
357 3.22317e-011 -2.2395e-010 0 
359 6.88633e-011 -6.15715e-011 0 
322 -1.55411e-011 1.04283e-010 0 
363 2.58965e-011 -1.2902e-010 0 
324 -4.97538e-011 -9.38866e-011 0 
326 1.60959e-010 4.58109e-011 0 
365 -2.45625e-011 2.72371e-011 0 
328 7.14083e-011 2.18616e-010 0 
367 3.00343e-011 1.46336e-011 0 
330 1.48316e-010 -5.21969e-011 0 
369 3.82584e-011 6.98662e-011 0 
332 -2.00086e-010 -2.77611e-010 0 
371 6.54181e-011 1.0746e-010 0 
373 7.81297e-011 1.63018e-010 0 
334 2.04011e-010 8.64534e-011 0 
336 1.45835e-010 -1.1695e-010 0 
375 -4.22397e-011 7.91359e-011 0 
338 2.94631e-010 1.42272e-010 0 
377 -1.53944e-010 -2.96328e-010 0 
340 1.02079e-010 2.42771e-010 0 
379 5.97956e-011 -1.35065e-010 0 
381 1.48137e-012 -2.91989e-014 0 
342 1.11429e-010 1.03935e-010 0 
383 1.41006e-010 -5.54454e-011 0 
344 -9.7102e-011 -7.85225e-011 0 
346 7.87395e-011 -2.33806e-010 0 
385 2.30892e-010 -1.21987e-010 0 
348 -5.83026e-011 2.23062e-011 0 
387 2.4456e-010 9.32476e-011 0 
350 3.43624e-010 -2.56802e-010 0 
389 1.18871e-010 1.40752e-010 0 
352 1.28301e-011 -9.53133e-011 0 
391 9.6915e-011 5.2737e-011 0 
393 1.56589e-010 8.48077e-011 0 
354 1.33866e-010 2.03906e-010 0 
395 9.74378e-011 -1.83963e-011 0 
356 2.82293e-011 -1.28637e-011 0 
358 2.08668e-010 -1.23039e-010 0 
397 1.82562e-010 5.8715e-011 0 
360 1.61555e-010 8.58145e-011 0 
361 7.87758e-011 -6.67388e-011 0 
399 1.59907e-010 -1.40716e-010 0 
362 2.32523e-010 3.03449e-010 0 
402 -1.0838e-010 6.51375e-011 0 
364 3.52302e-011 -1.11924e-010 0 
403 4.24411e-011 -2.13237e-010 0 
366 4.51833e-011 1.04554e-010 0 
368 -2.13738e-011 2.48651e-011 0 
404 6.58884e-011 7.3762e-011 0 
370 8.2105e-011 1.19253e-010 0 
405 7.94329e-011 5.52731e-011 0 
406 -7.11473e-012 3.77111e-010 0 
372 8.81036e-011 1.11374e-010 0 
407 1.20154e-010 2.08756e-010 0 
374 3.05308e-011 9.86752e-011 0 
408 4.95063e-011 -2.1021e-010 0 
376 -5.56187e-011 -2.8715e-010 0 
378 1.68305e-010 -2.04136e-010 0 
409 2.74948e-010 -3.05414e-010 0 
380 3.19454e-011 -3.0467e-010 0 
410 -9.25733e-011 -2.55309e-010 0 
382 1.37821e-010 -1.02463e-010 0 
411 1.74001e-010 -1.9772e-010 0 
412 1.36637e-010 -1.52032e-010 0 
384 1.15739e-010 -3.58608e-010 0 
413 -7.81283e-011 -2.83706e-010 0 
386 2.1643e-010 -3.30901e-010 0 
388 1.5025e-010 7.53192e-011 0 
414 1.59633e-010 -2.32651e-010 0 
390 7.28827e-011 1.03166e-010 0 
415 1.93463e-012 2.1315e-010 0 
392 6.4958e-011 8.39048e-011 0 
416 2.27359e-010 3.44718e-010 0 
417 8.21004e-011 4.60352e-011 0 
394 2.10098e-010 -1.84067e-011 0 
418 1.15534e-010 6.67198e-011 0 
396 1.31584e-010 1.0233e-010 0 
398 1.25097e-010 -1.65265e-010 0 
419 1.07737e-010 -2.26987e-010 0 
401 7.05914e-011 4.03551e-010 0 
400 -6.78639e-011 3.08615e-010 0 
420 2.83223e-010 6.72588e-011 0 
ITEM: TIMESTEP
67
ITEM: NUMBER OF ATOMS
420
ITEM: BOX BOUNDS pp ss pp
0 22.6539
-0.00196189 19.1842
-0.283174 0.283174
ITEM: ATOMS id fx fy fz 
1 0 0 0 
2 0 0 0 
3 0 0 0 
4 0 0 0 
5 0 0 0 
6 0 0 0 
7 0 0 0 
8 0 0 0 
9 0 0 0 
10 0 0 0 
11 0 0 0 
12 0 0 0 
13 0 0 0 
14 0 0 0 
15 0 0 0 
16 0 0 0 
17 0 0 0 
18 0 0 0 
19 0 0 0 
20 0 0 0 
21 0 0 0 
22 0 0 0 
23 0 0 0 
24 0 0 0 
25 0 0 0 
26 0 0 0 
27 0 0 0 
28 0 0 0 
29 0 0 0 
30 0 0 0 
31 0 0 0 
32 0 0 0 
33 0 0 0 
34 0 0 0 
35 0 0 0 
36 0 0 0 
37 0 0 0 
38 0 0 0 
39 0 0 0 
40 0 0 0 
41 0 0 0 
43 0 0 0 
42 -2.14098e-009 4.91225e-010 0 
45 0 0 0 
44 6.64928e-010 -2.82143e-009 0 
46 -2.06288e-009 2.3928e-010 0 
47 0 0 0 
48 1.68668e-009 2.53643e-010 0 
49 0 0 0 
50 1.72065e-009 -1.94667e-009 0 
51 0 0 0 
53 0 0 0 
52 -1.75336e-009 -1.17072e-009 0 
55 0 0 0 
54 3.23922e-009 1.63012e-010 0 
56 -4.58914e-010 -2.4856e-009 0 
57 0 0 0 
58 -3.91318e-010 -5.64614e-009 0 
59 0 0 0 
60 -2.22705e-009 -3.59764e-009 0 
61 0 0 0 
63 0 0 0 
62 2.22014e-009 -3.54897e-009 0 
65 0 0 0 
64 3.80375e-010 -5.518e-009 0 
66 4.41296e-010 -2.30533e-009 0 
67 0 0 0 
68 -3.26917e-009 3.61181e-010 0 
69 0 0 0 
70 1.71599e-009 -9.9178e-010 0 
71 0 0 0 
73 0 0 0 
72 -1.76017e-009 -1.80695e-009 0 
75 0 0 0 
74 -1.72183e-009 3.43262e-010 0 
77 0 0 0 
76 2.02691e-009 2.89591e-010 0 
78 -6.9407e-010 -2.79756e-009 0 
79 0 0 0 
80 2.11032e-009 4.97576e-010 0 
83 -3.09363e-009 9.15342e-011 0 
85 -5.76712e-010 1.38611e-009 0 
87 -8.00941e-009 1.95795e-009 0 
89 1.02476e-009 4.41117e-009 0 
91 -3.32863e-009 -4.82297e-010 0 
93 -1.80885e-009 2.64213e-009 0 
95 -2.04641e-010 1.76148e-010 0 
97 -4.00141e-009 -1.34871e-009 0 
99 -5.40944e-010 8.12139e-009 0 
101 -3.54414e-011 4.93777e-009 0 
103 4.69959e-010 7.93757e-009 0 
105 3.94236e-009 -1.67348e-009 0 
107 1.55571e-010 -2.14574e-010 0 
109 1.77235e-009 2.25828e-009 0 
111 3.29664e-009 -7.96156e-010 0 
113 -1.06097e-009 4.19049e-009 0 
115 7.97011e-009 1.82251e-009 0 
117 5.32618e-010 1.31595e-009 0 
81 -2.42206e-011 2.4877e-009 0 
119 3.0429e-009 6.04454e-011 0 
82 3.05216e-009 -1.47289e-010 0 
123 -7.01433e-010 2.24716e-009 0 
84 2.09255e-010 -2.80977e-009 0 
125 3.23876e-010 2.58235e-009 0 
86 -4.01615e-010 -3.47554e-009 0 
88 -1.10067e-009 -2.9724e-009 0 
127 -2.34423e-009 4.4503e-009 0 
90 -2.38466e-009 -4.15698e-009 0 
129 1.37783e-009 2.3846e-009 0 
131 1.40194e-009 -7.86622e-010 0 
92 1.27027e-009 -2.15079e-009 0 
133 2.23767e-009 -1.10337e-009 0 
94 -1.43125e-010 8.3259e-010 0 
135 2.72499e-009 4.14658e-010 0 
96 4.87036e-010 -2.80223e-009 0 
98 -3.28743e-009 -3.46338e-009 0 
137 2.76652e-009 2.23687e-009 0 
100 -4.88126e-009 -3.82619e-009 0 
139 2.24466e-009 5.55584e-009 0 
141 -6.26235e-011 4.94929e-011 0 
102 4.82901e-009 -3.6771e-009 0 
143 -2.36136e-009 5.16818e-009 0 
104 3.2276e-009 -3.05886e-009 0 
145 -2.86961e-009 1.56001e-009 0 
106 -5.62516e-010 -2.23716e-009 0 
108 5.0535e-011 1.43622e-009 0 
147 -2.80995e-009 -3.93017e-010 0 
110 -1.37103e-009 -1.61722e-009 0 
149 -2.30605e-009 -1.87347e-009 0 
112 2.28802e-009 -3.75933e-009 0 
151 -1.46933e-009 -1.40044e-009 0 
153 -1.46157e-009 1.97639e-009 0 
114 1.00428e-009 -2.71552e-009 0 
155 2.25907e-009 4.2168e-009 0 
116 3.15175e-010 -3.33709e-009 0 
118 -2.92139e-010 -2.74384e-009 0 
157 -4.22242e-010 2.46926e-009 0 
121 -5.37791e-011 2.02792e-009 0 
120 -3.12591e-009 -1.28327e-010 0 
159 6.04941e-010 2.20275e-009 0 
122 -1.38844e-010 -5.19536e-009 0 
124 -2.694e-009 -2.93195e-010 0 
126 1.00186e-009 -2.08734e-009 0 
128 -1.21139e-009 1.7129e-010 0 
130 7.94827e-010 -2.0145e-009 0 
132 -8.99347e-010 9.02951e-011 0 
134 2.15558e-009 1.41463e-009 0 
136 1.17562e-009 2.69609e-009 0 
138 -3.49257e-010 -2.54049e-009 0 
140 -1.0764e-009 -3.2718e-009 0 
142 9.78253e-010 -3.01759e-009 0 
144 2.34711e-010 -1.84244e-009 0 
146 -1.31559e-009 3.66604e-009 0 
148 -2.31843e-009 2.43135e-009 0 
150 7.27712e-010 9.5643e-010 0 
152 -9.54e-010 -1.39686e-009 0 
154 1.06586e-009 5.43692e-010 0 
156 -1.13384e-009 -1.89878e-009 0 
158 2.56567e-009 -2.09549e-010 0 
160 1.15362e-011 -5.1729e-009 0 
163 5.04047e-010 2.28321e-009 0 
162 -1.00947e-009 -3.88658e-009 0 
165 -2.4229e-009 3.76729e-009 0 
164 -2.15884e-009 -2.73991e-009 0 
166 -2.95847e-009 1.79215e-009 0 
167 1.8904e-009 2.25477e-009 0 
168 -9.39142e-010 8.42104e-010 0 
169 -1.84168e-009 3.19732e-010 0 
171 -9.65761e-010 -1.8818e-009 0 
170 -3.08277e-010 9.70497e-010 0 
173 -1.7094e-009 -3.48418e-009 0 
172 -1.33213e-009 -4.70427e-010 0 
175 1.07518e-009 -1.40667e-009 0 
174 -1.43923e-009 1.60606e-010 0 
176 -5.5421e-009 4.94225e-010 0 
177 1.50401e-009 -5.78036e-009 0 
178 8.11517e-010 -1.11311e-009 0 
179 -1.60651e-009 -1.11191e-009 0 
181 -8.34821e-011 -2.07711e-009 0 
180 -3.34758e-009 9.50261e-011 0 
183 1.44516e-009 -1.69887e-009 0 
182 3.19232e-009 4.45738e-010 0 
185 -1.6393e-009 -6.80266e-009 0 
184 -9.83605e-010 -1.70025e-010 0 
186 5.33328e-009 1.79986e-009 0 
187 -1.18014e-009 -2.61212e-009 0 
188 1.19402e-009 1.50869e-009 0 
189 1.61994e-009 -4.60602e-009 0 
190 1.0943e-009 6.36206e-010 0 
191 8.74895e-010 -2.72926e-009 0 
193 1.72607e-009 -2.17285e-010 0 
192 8.05053e-011 1.71625e-009 0 
195 -2.02903e-009 1.97706e-009 0 
194 7.51115e-010 1.23877e-009 0 
196 2.78517e-009 1.97937e-009 0 
197 2.28049e-009 3.6409e-009 0 
198 1.99231e-009 -2.66485e-009 0 
161 -7.02874e-011 9.86851e-010 0 
199 -6.54745e-010 2.23625e-009 0 
200 8.37526e-010 -3.86547e-009 0 
203 7.93143e-012 -2.7254e-009 0 
205 -1.96029e-009 1.37984e-009 0 
207 -1.22252e-009 -3.21856e-009 0 
209 1.92296e-009 9.35687e-010 0 
211 3.32653e-010 -3.54209e-009 0 
213 8.04617e-010 -4.43776e-009 0 
215 -6.25994e-010 -2.47595e-009 0 
217 -1.80941e-009 -5.40303e-009 0 
219 2.25622e-009 1.71306e-011 0 
221 -9.36401e-011 -2.09555e-010 0 
223 -2.43793e-009 -6.82508e-010 0 
225 1.64975e-009 -6.62716e-009 0 
227 5.09016e-010 -3.93406e-009 0 
229 -9.07431e-010 -5.7618e-009 0 
231 -4.36664e-010 -4.50927e-009 0 
233 -2.0886e-009 4.0352e-010 0 
235 1.04008e-009 -3.46893e-009 0 
237 1.77183e-009 1.27478e-009 0 
201 -9.82646e-011 1.86358e-009 0 
239 -1.95027e-010 -2.7665e-009 0 
202 1.94272e-009 -3.84755e-009 0 
243 -1.80813e-009 -1.19762e-009 0 
204 1.94235e-010 -2.85154e-009 0 
206 -1.96197e-009 -1.06918e-009 0 
245 3.97658e-010 -4.84001e-010 0 
208 -2.38918e-009 -6.65931e-010 0 
247 -1.75512e-009 1.96647e-011 0 
210 2.23931e-009 1.31543e-009 0 
249 2.04592e-009 -1.32479e-009 0 
251 -5.33234e-009 -7.41346e-009 0 
212 1.85033e-009 1.77313e-009 0 
253 2.63715e-010 -3.65999e-009 0 
214 -1.9818e-011 -1.88217e-009 0 
255 1.03006e-009 3.33271e-011 0 
216 2.31247e-009 -2.07721e-009 0 
218 4.86359e-010 -1.90009e-009 0 
257 -4.4279e-010 2.77833e-009 0 
220 -2.16877e-009 -1.19822e-009 0 
259 -8.79579e-010 1.49706e-009 0 
261 -7.90746e-011 -2.52e-009 0 
222 1.925e-009 -8.70949e-010 0 
263 7.11202e-010 1.02001e-009 0 
224 -7.30193e-010 -9.68409e-010 0 
265 2.75466e-010 1.80765e-009 0 
226 -2.58551e-009 -7.17907e-010 0 
228 -2.68284e-010 -4.48457e-010 0 
267 -1.21802e-009 -1.23724e-009 0 
230 -2.17613e-009 2.96188e-009 0 
269 -3.4314e-010 -4.9717e-009 0 
271 5.18159e-009 -8.26214e-009 0 
232 -2.49611e-009 2.00993e-009 0 
273 -2.26178e-009 -1.71655e-009 0 
234 2.17423e-009 -3.43006e-010 0 
275 1.53661e-009 -1.58543e-010 0 
236 1.7495e-009 -9.25556e-010 0 
238 -4.02882e-010 -2.79179e-009 0 
277 -6.26349e-010 -5.51899e-010 0 
240 -2.14782e-009 -3.83557e-009 0 
241 -1.16678e-010 -5.31844e-009 0 
279 1.58241e-009 -1.22511e-009 0 
242 4.94313e-010 1.25044e-010 0 
244 -2.58608e-010 -3.17074e-009 0 
246 1.64094e-009 -2.60044e-009 0 
248 3.73974e-009 -1.21504e-009 0 
250 1.61684e-009 -1.20107e-009 0 
252 -1.03272e-009 -5.38589e-010 0 
254 7.67475e-011 -2.36775e-009 0 
256 7.356e-010 5.7874e-012 0 
258 1.61796e-009 3.07558e-009 0 
260 1.47425e-009 8.49014e-010 0 
262 -1.84197e-009 9.05444e-010 0 
264 -1.94206e-009 3.3932e-009 0 
266 -9.23895e-010 7.21669e-010 0 
268 -4.73966e-010 -1.13298e-009 0 
270 6.64718e-010 4.47269e-010 0 
272 -1.86199e-009 -7.44397e-010 0 
274 -3.99421e-009 -1.00127e-009 0 
276 -1.87607e-009 -2.51331e-009 0 
278 1.50991e-011 -3.13756e-009 0 
280 -7.35129e-010 1.31062e-010 0 
283 3.78316e-009 -1.49152e-009 0 
282 1.69655e-009 -1.88644e-009 0 
285 3.02213e-009 8.08979e-011 0 
284 -1.47559e-009 -8.22974e-010 0 
286 3.48448e-009 1.73201e-009 0 
287 3.72745e-009 -2.16518e-010 0 
288 4.60114e-009 2.02462e-009 0 
289 3.14693e-009 -2.0805e-010 0 
290 -2.68172e-009 1.523e-009 0 
291 2.23986e-009 -3.54858e-009 0 
293 -3.37844e-009 1.18312e-009 0 
292 -1.3805e-009 5.43494e-009 0 
295 -2.67966e-009 -2.85653e-011 0 
294 -6.57658e-009 -2.13999e-009 0 
296 -1.68641e-009 -5.90798e-009 0 
297 -2.41806e-009 3.91918e-009 0 
298 -2.21708e-009 -6.90985e-009 0 
299 -1.70397e-009 9.23331e-011 0 
301 -4.20468e-011 -1.84079e-009 0 
300 1.65145e-009 2.48043e-009 0 
303 1.5862e-009 4.04433e-010 0 
302 -2.18782e-009 1.94084e-009 0 
305 1.98077e-009 4.12161e-009 0 
304 2.29209e-009 -8.18118e-009 0 
306 1.43473e-009 -5.8115e-009 0 
307 2.53056e-009 -8.52899e-010 0 
308 5.98643e-009 -1.16505e-009 0 
309 3.32926e-009 1.51924e-010 0 
310 1.15265e-009 5.87628e-009 0 
311 -2.51102e-009 -4.02888e-009 0 
313 -3.38569e-009 -4.46318e-010 0 
312 2.38688e-009 1.7731e-009 0 
315 -3.98622e-009 -3.12732e-010 0 
314 -4.85957e-009 2.12724e-009 0 
316 -3.75405e-009 1.77373e-009 0 
317 -3.28223e-009 4.13026e-011 0 
318 1.20424e-009 -8.0189e-010 0 
281 -1.26869e-010 -3.30789e-009 0 
319 -4.04374e-009 -1.50524e-009 0 
320 -1.96432e-009 -1.88306e-009 0 
323 5.30432e-010 1.84408e-009 0 
325 -4.69924e-010 2.13155e-009 0 
327 5.83222e-009 1.34103e-009 0 
329 1.04856e-009 1.99201e-009 0 
331 1.74775e-010 2.37193e-009 0 
333 -2.66605e-009 -3.29047e-009 0 
335 9.08065e-010 5.79144e-009 0 
336 -5.86231e-009 -6.05585e-009 0 
337 -9.74565e-010 2.17476e-009 0 
338 -1.01905e-009 2.69529e-009 0 
339 -1.90339e-009 -5.25461e-010 0 
341 5.52924e-011 -3.97395e-009 0 
340 -5.17657e-009 2.19168e-009 0 
343 1.1838e-009 1.46084e-009 0 
342 5.27932e-009 4.96785e-010 0 
345 4.87271e-010 2.9703e-009 0 
344 9.85398e-010 1.50445e-009 0 
347 -7.41574e-010 4.96167e-009 0 
346 5.03773e-009 -5.43318e-009 0 
349 2.31145e-009 -3.64085e-009 0 
351 -4.18734e-010 2.13183e-009 0 
353 -1.33868e-009 1.8972e-009 0 
355 -6.11137e-009 1.29747e-009 0 
357 1.87563e-010 2.11901e-009 0 
321 -1.40269e-010 7.87934e-010 0 
359 -8.1506e-010 1.83567e-009 0 
322 9.61062e-010 3.85429e-009 0 
363 -1.53716e-009 1.09419e-009 0 
324 3.44846e-009 3.54685e-009 0 
326 1.67111e-009 -3.2968e-010 0 
365 9.98201e-010 3.52207e-009 0 
328 1.92516e-010 2.84032e-009 0 
367 1.78128e-009 1.34375e-009 0 
330 3.58876e-009 3.22582e-010 0 
369 4.15274e-010 2.79361e-010 0 
371 1.59773e-009 3.61453e-009 0 
332 1.06017e-010 2.7373e-009 0 
373 -1.36045e-009 4.38435e-010 0 
334 1.76425e-010 -1.73141e-010 0 
375 -7.44119e-009 -2.34121e-009 0 
377 -5.41796e-009 -3.56686e-009 0 
379 -1.40497e-009 -3.0305e-009 0 
381 -7.84522e-010 1.50368e-009 0 
383 1.38706e-009 -2.78214e-009 0 
385 5.64043e-009 -4.1501e-009 0 
348 -3.54436e-010 4.83938e-011 0 
387 7.0394e-009 -2.44748e-009 0 
350 -4.41568e-010 2.93596e-009 0 
389 1.10834e-009 2.86486e-010 0 
352 -3.8621e-009 3.98169e-010 0 
391 -1.91044e-009 3.5514e-009 0 
393 -7.08571e-010 2.3783e-010 0 
354 -4.82369e-010 2.88231e-009 0 
395 -2.08021e-009 1.3323e-009 0 
356 -1.9579e-009 -3.16358e-010 0 
358 -3.73861e-009 3.54972e-009 0 
397 -1.29597e-009 3.51986e-009 0 
360 -1.24883e-009 3.85714e-009 0 
361 -1.51006e-010 -2.18626e-009 0 
399 1.2422e-009 1.09946e-009 0 
362 -2.46129e-009 2.23979e-010 0 
402 1.56008e-009 -4.06846e-009 0 
364 -1.86709e-009 -2.77216e-009 0 
403 1.1057e-009 -2.03537e-009 0 
366 -7.30003e-010 2.99773e-011 0 
368 1.1474e-009 3.25149e-009 0 
404 -3.15761e-010 -8.28383e-010 0 
370 -4.60692e-010 1.5392e-009 0 
405 -1.32547e-009 -1.91693e-009 0 
406 -1.0787e-009 1.04687e-009 0 
372 9.48757e-010 8.88691e-009 0 
407 -1.06166e-009 7.31747e-009 0 
374 -2.93722e-009 3.70805e-009 0 
408 -4.25573e-010 5.31696e-010 0 
376 -4.00658e-009 7.03615e-010 0 
378 3.67155e-009 3.31159e-009 0 
409 2.66436e-009 -4.40135e-009 0 
380 1.96601e-009 -1.76132e-009 0 
410 1.03127e-009 1.94175e-009 0 
411 2.70906e-010 2.41057e-009 0 
382 -2.28937e-009 -2.30472e-010 0 
412 -1.44595e-009 1.06751e-009 0 
384 -4.51757e-009 3.88575e-009 0 
413 -2.96415e-009 -4.4447e-009 0 
386 3.83974e-009 7.59569e-010 0 
388 2.60078e-009 3.77804e-009 0 
414 1.1892e-010 4.95192e-010 0 
390 -1.23758e-009 8.92307e-009 0 
415 7.57757e-010 7.29877e-009 0 
416 7.75118e-010 1.03326e-009 0 
392 1.5973e-010 1.56559e-009 0 
417 1.01601e-009 -1.92492e-009 0 
394 -1.44824e-009 3.26304e-009 0 
418 8.55617e-012 -8.31516e-010 0 
396 4.28383e-010 3.5427e-011 0 
398 1.56414e-009 -2.77036e-009 0 
419 -1.40848e-009 -2.02715e-009 0 
401 -1.46867e-010 6.55572e-009 0 
400 2.16344e-009 2.26753e-010 0 
420 -1.86929e-009 -4.06673e-009 0 
ITEM: TIMESTEP
72
ITEM: NUMBER OF ATOMS
420
ITEM: BOX BOUNDS pp ss pp
0 22.6539
-0.00196189 19.1704
-0.283174 0.283174
ITEM: ATOMS id fx fy fz 
1 0 0 0 
2 0 0 0 
3 0 0 0 
4 0 0 0 
5 0 0 0 
6 0 0 0 
7 0 0 0 
8 0 0 0 
9 0 0 0 
10 0 0 0 
11 0 0 0 
12 0 0 0 
13 0 0 0 
14 0 0 0 
15 0 0 0 
16 0 0 0 
17 0 0 0 
18 0 0 0 
19 0 0 0 
20 0 0 0 
21 0 0 0 
22 0 0 0 
23 0 0 0 
24 0 0 0 
25 0 0 0 
26 0 0 0 
27 0 0 0 
28 0 0 0 
29 0 0 0 
30 0 0 0 
31 0 0 0 
32 0 0 0 
33 0 0 0 
34 0 0 0 
35 0 0 0 
36 0 0 0 
37 0 0 0 
38 0 0 0 
39 0 0 0 
40 0 0 0 
41 0 0 0 
43 0 0 0 
42 -1.84781e-009 -3.18772e-010 0 
45 0 0 0 
44 2.73539e-009 1.3022e-009 0 
46 -3.90329e-009 1.25477e-009 0 
47 0 0 0 
48 4.12586e-009 -9.68304e-010 0 
49 0 0 0 
50 -2.46435e-010 -1.17248e-009 0 
51 0 0 0 
53 0 0 0 
52 6.5408e-010 -4.43395e-009 0 
55 0 0 0 
54 -2.55862e-009 -5.81696e-009 0 
56 1.16343e-009 -1.41426e-009 0 
57 0 0 0 
58 -6.3666e-009 -1.43137e-009 0 
59 0 0 0 
60 6.45126e-009 1.56467e-009 0 
61 0 0 0 
63 0 0 0 
62 -6.47432e-009 1.76434e-009 0 
65 0 0 0 
64 6.46525e-009 -9.28068e-010 0 
66 -1.25528e-009 -7.57174e-010 0 
67 0 0 0 
68 2.36723e-009 -5.24248e-009 0 
69 0 0 0 
70 -6.65893e-010 -4.05557e-009 0 
71 0 0 0 
73 0 0 0 
72 2.34063e-010 -8.93785e-010 0 
75 0 0 0 
74 -4.1859e-009 -8.73744e-010 0 
77 0 0 0 
76 3.77249e-009 1.40258e-009 0 
78 -2.78635e-009 1.13937e-009 0 
79 0 0 0 
80 1.82256e-009 -4.30909e-010 0 
83 2.39845e-009 -3.86521e-009 0 
81 -3.8602e-011 4.01092e-011 0 
85 -4.9096e-009 -1.41255e-009 0 
87 1.04805e-009 -1.65272e-009 0 
89 -1.02924e-009 -1.06502e-009 0 
91 2.06607e-009 1.55983e-009 0 
93 2.62018e-009 -2.45598e-009 0 
95 1.92025e-009 3.84373e-009 0 
97 -1.61097e-009 3.7655e-009 0 
99 -3.5941e-009 3.95957e-009 0 
101 -9.16934e-011 4.32444e-009 0 
103 3.46159e-009 3.23222e-009 0 
105 1.52001e-009 2.59057e-009 0 
107 -1.96902e-009 2.61424e-009 0 
109 -2.5808e-009 -3.42656e-009 0 
111 -2.13907e-009 8.74635e-010 0 
113 9.98001e-010 -1.3571e-009 0 
115 -1.07068e-009 -1.75148e-009 0 
117 4.74143e-009 -1.4948e-009 0 
119 -2.44594e-009 -3.75475e-009 0 
82 -3.09607e-009 3.04732e-009 0 
123 -4.78642e-010 -2.75048e-010 0 
121 -1.72336e-010 -8.04011e-010 0 
84 2.96644e-009 -1.381e-009 0 
125 -1.16058e-009 3.58572e-010 0 
86 -4.44942e-009 3.53197e-009 0 
88 -3.58486e-009 -2.51467e-009 0 
127 1.73293e-009 -8.4481e-010 0 
90 6.86816e-009 -1.25716e-009 0 
129 2.6521e-009 8.15838e-012 0 
131 -9.83824e-010 -8.86966e-010 0 
92 1.09966e-009 1.06158e-010 0 
133 3.31157e-009 -1.19905e-009 0 
94 -1.17883e-009 1.1071e-009 0 
135 5.29851e-011 4.60159e-010 0 
96 6.23268e-010 3.49946e-009 0 
98 1.57781e-009 2.51876e-010 0 
137 -7.0508e-010 -1.96172e-009 0 
100 2.91413e-009 3.61033e-009 0 
139 -6.34467e-009 -1.3924e-009 0 
141 -1.57378e-010 -1.10893e-010 0 
102 -2.94006e-009 4.22465e-009 0 
143 6.06937e-009 -2.72491e-009 0 
104 -1.69843e-009 1.64273e-009 0 
145 6.29818e-010 -4.21899e-009 0 
106 -7.77e-010 5.30713e-009 0 
108 9.124e-010 2.82511e-009 0 
147 -8.04991e-011 -1.8276e-009 0 
110 -1.29459e-009 1.33028e-009 0 
149 -3.38425e-009 -3.1503e-009 0 
112 -7.05504e-009 -5.99796e-010 0 
151 8.63688e-010 -1.97428e-009 0 
153 -2.70243e-009 -5.05503e-010 0 
114 3.37663e-009 -2.29511e-009 0 
155 -1.93539e-009 -9.29592e-010 0 
116 4.2947e-009 3.46017e-009 0 
118 -2.95702e-009 -1.35097e-009 0 
157 1.09164e-009 3.96193e-010 0 
120 2.95802e-009 3.13079e-009 0 