LAMMPS (1 Feb 2014)
# LAMMPS Input File for Grain Boundaries
# Mark Tschopp, Dec2009
# This file will generate a single Sigma5(310) STGB

# ---------- Initialize Simulation ---------------------
clear
units metal
dimension 3
boundary p p p
atom_style atomic

variable tmp equal 300.1

# ---------- Create Atomistic Structure ---------------------
lattice fcc 3.615
Lattice spacing in x,y,z = 3.615 3.615 3.615
## Box size determined by tilt angle##
## Tschopp et al., Philosophical Magazine,Vol. 87, No. 25, 1 September 2007, 3871.##
region whole block 0.000000 11.4316 -57.1582 57.1582  0.000000 3.6150000 units box
create_box 2 whole
Created orthogonal box = (0 -57.1582 0) to (11.4316 57.1582 3.615)
  1 by 1 by 1 MPI processor grid
region upper block INF INF 0.000000 57.1582 INF INF units box
lattice fcc 3.615 orient x  0  3  1 orient y  0 -1  3 orient z  1  0  0
Lattice spacing in x,y,z = 4.57265 4.57265 3.615
create_atoms 1 region upper
Created 200 atoms
region lower block INF INF -57.1582 0.0 INF INF units box
lattice fcc 3.615 orient x  0  3 -1 orient y  0  1  3 orient z  1  0  0
Lattice spacing in x,y,z = 4.57265 4.57265 3.615
create_atoms 2 region lower
Created 202 atoms
group upper type 1
200 atoms in group upper
group lower type 2
202 atoms in group lower
# ---------- Define Interatomic Potential ---------------------
mass 1 63.546
mass 2 63.546
velocity        all create ${tmp} 277387
velocity        all create 300.1 277387

pair_style eam/alloy
pair_coeff * * Cu_Mishin Cu Cu

neighbor 2.0 bin
neigh_modify delay 10 check yes

# ---------- Displace atoms and delete overlapping atoms ---------------------
displace_atoms upper move 0 0 0 units lattice
delete_atoms overlap 0.35 lower upper
Deleted 2 atoms, new total = 400

# ---------- Define Settings ---------------------
compute csym all centro/atom fcc
compute eng all pe/atom ## c_eng is potential energy
compute eatoms all reduce sum c_eng

# ---------- Run Minimization ---------------------
reset_timestep 0
thermo 10
compute 1 all pe/atom
thermo_style custom step temp pe lx ly lz press pxx pyy pzz c_eatoms
fix 1a all npt temp ${tmp} ${tmp} 100.0 iso 0.0 0.0 1000.0
fix 1a all npt temp 300.1 ${tmp} 100.0 iso 0.0 0.0 1000.0
fix 1a all npt temp 300.1 300.1 100.0 iso 0.0 0.0 1000.0

dump 		1 all cfg 25 dump.sig5_minimization_*.cfg mass type xs ys zs   c_csym c_eng fx fy fz
dump_modify     1 element Cu Cu
min_style cg
minimize 1e-15 1e-15 5000 5000
WARNING: Resetting reneighboring criteria during minimization (../min.cpp:173)
Memory usage per processor = 5.02015 Mbytes
Step Temp PotEng Lx Ly Lz Press Pxx Pyy Pzz eatoms 
       0    300.47674   -1205.0195      11.4316     114.3164        3.615    132307.33    1992.1828    393337.78    1592.0137   -1205.0195 
      10    300.47674   -1408.4829      11.4316     114.3164        3.615    12738.122    8081.6369    18495.997    11636.731   -1408.4829 
      20    300.47674   -1408.7742      11.4316     114.3164        3.615    12690.612    8351.4009    18433.763    11286.673   -1408.7742 
      30    300.47674    -1408.875      11.4316     114.3164        3.615    12699.081    8438.4979    18553.015    11105.729    -1408.875 
      40    300.47674   -1408.8906      11.4316     114.3164        3.615    12730.867     8535.721    18502.817    11154.063   -1408.8906 
      50    300.47674   -1408.8924      11.4316     114.3164        3.615    12731.176    8544.0742    18524.593     11124.86   -1408.8924 
      60    300.47674   -1408.8933      11.4316     114.3164        3.615    12728.893    8578.5953    18478.415    11129.668   -1408.8933 
      70    300.47674   -1408.8944      11.4316     114.3164        3.615    12724.784    8630.8409    18420.834    11122.676   -1408.8944 
      80    300.47674   -1408.8969      11.4316     114.3164        3.615    12734.631    8886.2406    18202.298    11115.354   -1408.8969 
      90    300.47674   -1408.8976      11.4316     114.3164        3.615    12730.521     8930.964    18120.599    11139.999   -1408.8976 
     100    300.47674   -1408.8976      11.4316     114.3164        3.615    12731.396    8941.2567    18115.475    11137.456   -1408.8976 
     110    300.47674   -1408.8978      11.4316     114.3164        3.615    12730.301    8989.0649    18056.823    11145.015   -1408.8978 
     120    300.47674    -1408.898      11.4316     114.3164        3.615    12732.258    9013.4354     18043.34        11140    -1408.898 
     130    300.47674   -1408.9102      11.4316     114.3164        3.615    12569.863    10481.744    16041.087    11186.756   -1408.9102 
     140    300.47674   -1408.9911      11.4316     114.3164        3.615    12201.316     11097.36     14260.19    11246.398   -1408.9911 
     150    300.47674   -1409.0618      11.4316     114.3164        3.615    12092.488    11121.947    13805.083    11350.436   -1409.0618 
     160    300.47674   -1409.1145      11.4316     114.3164        3.615    11951.649    10861.672    13641.085     11352.19   -1409.1145 
     170    300.47674   -1409.1622      11.4316     114.3164        3.615    11890.037    10571.123    13539.433    11559.554   -1409.1622 
     180    300.47674    -1409.179      11.4316     114.3164        3.615    11873.664    10528.987    13539.761    11552.243    -1409.179 
     190    300.47674   -1409.2528      11.4316     114.3164        3.615    11749.877    9963.1023    13569.752    11716.777   -1409.2528 
     200    300.47674   -1409.2944      11.4316     114.3164        3.615     11953.88     9964.661     13858.84    12038.138   -1409.2944 
     210    300.47674   -1409.3145      11.4316     114.3164        3.615     11991.46    9907.6039    14005.911    12060.864   -1409.3145 
     220    300.47674   -1409.3301      11.4316     114.3164        3.615    12004.448    9896.0129    14037.282    12080.048   -1409.3301 
     230    300.47674   -1409.5192      11.4316     114.3164        3.615    11564.995    9804.9054    12688.477    12201.601   -1409.5192 
     240    300.47674   -1409.6114      11.4316     114.3164        3.615    11365.345    9749.2772    12143.906    12202.852   -1409.6114 
     250    300.47674   -1409.6579      11.4316     114.3164        3.615    11263.082    9734.2224    11681.246    12373.777   -1409.6579 
     260    300.47674   -1409.6895      11.4316     114.3164        3.615    11225.738    9755.8754    11531.106    12390.232   -1409.6895 
     270    300.47674   -1409.7473      11.4316     114.3164        3.615    11124.566    9749.7538    11018.716    12605.229   -1409.7473 
     280    300.47674   -1409.7539      11.4316     114.3164        3.615    11143.094    9793.9296    11057.138    12578.213   -1409.7539 
     290    300.47674   -1409.7605      11.4316     114.3164        3.615    11145.152    9751.1419    11060.458    12623.858   -1409.7605 
     300    300.47674   -1409.7658      11.4316     114.3164        3.615    11150.432    9738.8625    11083.427    12629.006   -1409.7658 
     310    300.47674   -1409.7682      11.4316     114.3164        3.615    11158.784    9742.1225    11084.244    12649.987   -1409.7682 
     320    300.47674   -1409.7754      11.4316     114.3164        3.615     11165.49    9729.9304    11083.971    12682.569   -1409.7754 
     330    300.47674   -1409.7785      11.4316     114.3164        3.615    11161.281    9726.4385    11068.364     12689.04   -1409.7785 
     340    300.47674   -1409.7808      11.4316     114.3164        3.615    11181.768    9728.3496    11105.087    12711.867   -1409.7808 
     350    300.47674   -1409.7856      11.4316     114.3164        3.615    11181.288    9720.7328    11100.939    12722.192   -1409.7856 
     360    300.47674   -1409.7871      11.4316     114.3164        3.615    11178.047    9719.4545    11086.131    12728.556   -1409.7871 
     370    300.47674   -1409.7882      11.4316     114.3164        3.615    11178.726    9718.1562    11087.441    12730.582   -1409.7882 
     380    300.47674   -1409.7894      11.4316     114.3164        3.615    11178.763    9718.6768    11086.512      12731.1   -1409.7894 
     390    300.47674   -1409.7912      11.4316     114.3164        3.615    11183.093    9710.5902    11097.246    12